
     Program PWSCF v.6.7MaX starts on  1Oct2023 at 19:22:45 

     This program is part of the open-source Quantum ESPRESSO suite
     for quantum simulation of materials; please cite
         "P. Giannozzi et al., J. Phys.:Condens. Matter 21 395502 (2009);
         "P. Giannozzi et al., J. Phys.:Condens. Matter 29 465901 (2017);
          URL http://www.quantum-espresso.org", 
     in publications or presentations arising from this work. More details at
     http://www.quantum-espresso.org/quote

     Parallel version (MPI), running on     4 processors

     MPI processes distributed on     1 nodes
     R & G space division:  proc/nbgrp/npool/nimage =       4
     Waiting for input...
     Reading input from standard input

     Current dimensions of program PWSCF are:
     Max number of different atomic species (ntypx) = 10
     Max number of k-points (npk) =  40000
     Max angular momentum in pseudopotentials (lmaxx) =  3

     Atomic positions and unit cell read from directory:
     ../tmp/si.save/


     Subspace diagonalization in iterative solution of the eigenvalue problem:
     one sub-group per band group will be used
     scalapack distributed-memory algorithm (size of sub-group:  2*  2 procs)


     Parallelization info
     --------------------
     sticks:   dense  smooth     PW     G-vecs:    dense   smooth      PW
     Min         214     214     63                 4221     4221     684
     Max         215     215     64                 4224     4224     688
     Sum         859     859    253                16889    16889    2741



     bravais-lattice index     =            2
     lattice parameter (alat)  =      10.2625  a.u.
     unit-cell volume          =     270.2088 (a.u.)^3
     number of atoms/cell      =            2
     number of atomic types    =            1
     number of electrons       =         8.00
     number of Kohn-Sham states=           20
     kinetic-energy cutoff     =      60.0000  Ry
     charge density cutoff     =     240.0000  Ry
     Exchange-correlation=  SLA  PW   PBE  PBE
                           (   1   4   3   4   0   0   0)

     celldm(1)=  10.262500  celldm(2)=   0.000000  celldm(3)=   0.000000
     celldm(4)=   0.000000  celldm(5)=   0.000000  celldm(6)=   0.000000

     crystal axes: (cart. coord. in units of alat)
               a(1) = (  -0.500000   0.000000   0.500000 )  
               a(2) = (   0.000000   0.500000   0.500000 )  
               a(3) = (  -0.500000   0.500000   0.000000 )  

     reciprocal axes: (cart. coord. in units 2 pi/alat)
               b(1) = ( -1.000000 -1.000000  1.000000 )  
               b(2) = (  1.000000  1.000000  1.000000 )  
               b(3) = ( -1.000000  1.000000 -1.000000 )  


     PseudoPot. # 1 for Si read from file:
     ../pseudo/Si.pbe-rrkj.UPF
     MD5 check sum: cf7ab5690cd9a85b22c4813f7e365554
     Pseudo is Norm-conserving, Zval =  4.0
     Generated by new atomic code, or converted to UPF format
     Using radial grid of  883 points,  3 beta functions with: 
                l(1) =   0
                l(2) =   0
                l(3) =   1

     atomic species   valence    mass     pseudopotential
        Si             4.00    28.08550     Si( 1.00)

     No symmetry found


                                    s                        frac. trans.

      isym =  1     identity                                     

 cryst.   s( 1) = (     1          0          0      )
                  (     0          1          0      )
                  (     0          0          1      )

 cart.    s( 1) = (  1.0000000  0.0000000  0.0000000 )
                  (  0.0000000  1.0000000  0.0000000 )
                  (  0.0000000  0.0000000  1.0000000 )


     point group C_1 (1)    
     there are  1 classes
     the character table:

       E    
A      1.00

     the symmetry operations in each class and the name of the first element:

     E        1
          identity                                               

   Cartesian axes

     site n.     atom                  positions (alat units)
         1           Si  tau(   1) = (   0.0000000   0.0000000   0.0000000  )
         2           Si  tau(   2) = (   0.2500000   0.2500000   0.2500000  )

   Crystallographic axes

     site n.     atom                  positions (cryst. coord.)
         1           Si  tau(   1) = (  0.0000000  0.0000000  0.0000000  )
         2           Si  tau(   2) = ( -0.2500000  0.7500000 -0.2500000  )

     number of k points=    64 (tetrahedron method)
                       cart. coord. in units 2pi/alat
        k(    1) = (  -0.1250000   0.1250000   0.1250000), wk =   0.0312500
        k(    2) = (  -0.3750000   0.3750000  -0.1250000), wk =   0.0312500
        k(    3) = (   0.3750000  -0.3750000   0.6250000), wk =   0.0312500
        k(    4) = (   0.1250000  -0.1250000   0.3750000), wk =   0.0312500
        k(    5) = (   0.1250000   0.3750000   0.3750000), wk =   0.0312500
        k(    6) = (  -0.1250000   0.6250000   0.1250000), wk =   0.0312500
        k(    7) = (   0.6250000  -0.1250000   0.8750000), wk =   0.0312500
        k(    8) = (   0.3750000   0.1250000   0.6250000), wk =   0.0312500
        k(    9) = (  -0.6250000  -0.3750000  -0.3750000), wk =   0.0312500
        k(   10) = (  -0.8750000  -0.1250000  -0.6250000), wk =   0.0312500
        k(   11) = (  -0.1250000  -0.8750000   0.1250000), wk =   0.0312500
        k(   12) = (  -0.3750000  -0.6250000  -0.1250000), wk =   0.0312500
        k(   13) = (  -0.3750000  -0.1250000  -0.1250000), wk =   0.0312500
        k(   14) = (  -0.6250000   0.1250000  -0.3750000), wk =   0.0312500
        k(   15) = (   0.1250000  -0.6250000   0.3750000), wk =   0.0312500
        k(   16) = (  -0.1250000  -0.3750000   0.1250000), wk =   0.0312500
        k(   17) = (  -0.3750000  -0.1250000   0.3750000), wk =   0.0312500
        k(   18) = (  -0.6250000   0.1250000   0.1250000), wk =   0.0312500
        k(   19) = (   0.1250000  -0.6250000   0.8750000), wk =   0.0312500
        k(   20) = (  -0.1250000  -0.3750000   0.6250000), wk =   0.0312500
        k(   21) = (  -0.1250000   0.1250000   0.6250000), wk =   0.0312500
        k(   22) = (  -0.3750000   0.3750000   0.3750000), wk =   0.0312500
        k(   23) = (   0.3750000  -0.3750000   1.1250000), wk =   0.0312500
        k(   24) = (   0.1250000  -0.1250000   0.8750000), wk =   0.0312500
        k(   25) = (  -0.8750000  -0.6250000  -0.1250000), wk =   0.0312500
        k(   26) = (  -1.1250000  -0.3750000  -0.3750000), wk =   0.0312500
        k(   27) = (  -0.3750000  -1.1250000   0.3750000), wk =   0.0312500
        k(   28) = (  -0.6250000  -0.8750000   0.1250000), wk =   0.0312500
        k(   29) = (  -0.6250000  -0.3750000   0.1250000), wk =   0.0312500
        k(   30) = (  -0.8750000  -0.1250000  -0.1250000), wk =   0.0312500
        k(   31) = (  -0.1250000  -0.8750000   0.6250000), wk =   0.0312500
        k(   32) = (  -0.3750000  -0.6250000   0.3750000), wk =   0.0312500
        k(   33) = (   0.3750000   0.6250000  -0.3750000), wk =   0.0312500
        k(   34) = (   0.1250000   0.8750000  -0.6250000), wk =   0.0312500
        k(   35) = (   0.8750000   0.1250000   0.1250000), wk =   0.0312500
        k(   36) = (   0.6250000   0.3750000  -0.1250000), wk =   0.0312500
        k(   37) = (   0.6250000   0.8750000  -0.1250000), wk =   0.0312500
        k(   38) = (   0.3750000   1.1250000  -0.3750000), wk =   0.0312500
        k(   39) = (   1.1250000   0.3750000   0.3750000), wk =   0.0312500
        k(   40) = (   0.8750000   0.6250000   0.1250000), wk =   0.0312500
        k(   41) = (  -0.1250000   0.1250000  -0.8750000), wk =   0.0312500
        k(   42) = (  -0.3750000   0.3750000  -1.1250000), wk =   0.0312500
        k(   43) = (   0.3750000  -0.3750000  -0.3750000), wk =   0.0312500
        k(   44) = (   0.1250000  -0.1250000  -0.6250000), wk =   0.0312500
        k(   45) = (   0.1250000   0.3750000  -0.6250000), wk =   0.0312500
        k(   46) = (  -0.1250000   0.6250000  -0.8750000), wk =   0.0312500
        k(   47) = (   0.6250000  -0.1250000  -0.1250000), wk =   0.0312500
        k(   48) = (   0.3750000   0.1250000  -0.3750000), wk =   0.0312500
        k(   49) = (   0.1250000   0.3750000  -0.1250000), wk =   0.0312500
        k(   50) = (  -0.1250000   0.6250000  -0.3750000), wk =   0.0312500
        k(   51) = (   0.6250000  -0.1250000   0.3750000), wk =   0.0312500
        k(   52) = (   0.3750000   0.1250000   0.1250000), wk =   0.0312500
        k(   53) = (   0.3750000   0.6250000   0.1250000), wk =   0.0312500
        k(   54) = (   0.1250000   0.8750000  -0.1250000), wk =   0.0312500
        k(   55) = (   0.8750000   0.1250000   0.6250000), wk =   0.0312500
        k(   56) = (   0.6250000   0.3750000   0.3750000), wk =   0.0312500
        k(   57) = (  -0.3750000  -0.1250000  -0.6250000), wk =   0.0312500
        k(   58) = (  -0.6250000   0.1250000  -0.8750000), wk =   0.0312500
        k(   59) = (   0.1250000  -0.6250000  -0.1250000), wk =   0.0312500
        k(   60) = (  -0.1250000  -0.3750000  -0.3750000), wk =   0.0312500
        k(   61) = (  -0.1250000   0.1250000  -0.3750000), wk =   0.0312500
        k(   62) = (  -0.3750000   0.3750000  -0.6250000), wk =   0.0312500
        k(   63) = (   0.3750000  -0.3750000   0.1250000), wk =   0.0312500
        k(   64) = (   0.1250000  -0.1250000  -0.1250000), wk =   0.0312500

                       cryst. coord.
        k(    1) = (   0.1250000   0.1250000   0.1250000), wk =   0.0312500
        k(    2) = (   0.1250000   0.1250000   0.3750000), wk =   0.0312500
        k(    3) = (   0.1250000   0.1250000  -0.3750000), wk =   0.0312500
        k(    4) = (   0.1250000   0.1250000  -0.1250000), wk =   0.0312500
        k(    5) = (   0.1250000   0.3750000   0.1250000), wk =   0.0312500
        k(    6) = (   0.1250000   0.3750000   0.3750000), wk =   0.0312500
        k(    7) = (   0.1250000   0.3750000  -0.3750000), wk =   0.0312500
        k(    8) = (   0.1250000   0.3750000  -0.1250000), wk =   0.0312500
        k(    9) = (   0.1250000  -0.3750000   0.1250000), wk =   0.0312500
        k(   10) = (   0.1250000  -0.3750000   0.3750000), wk =   0.0312500
        k(   11) = (   0.1250000  -0.3750000  -0.3750000), wk =   0.0312500
        k(   12) = (   0.1250000  -0.3750000  -0.1250000), wk =   0.0312500
        k(   13) = (   0.1250000  -0.1250000   0.1250000), wk =   0.0312500
        k(   14) = (   0.1250000  -0.1250000   0.3750000), wk =   0.0312500
        k(   15) = (   0.1250000  -0.1250000  -0.3750000), wk =   0.0312500
        k(   16) = (   0.1250000  -0.1250000  -0.1250000), wk =   0.0312500
        k(   17) = (   0.3750000   0.1250000   0.1250000), wk =   0.0312500
        k(   18) = (   0.3750000   0.1250000   0.3750000), wk =   0.0312500
        k(   19) = (   0.3750000   0.1250000  -0.3750000), wk =   0.0312500
        k(   20) = (   0.3750000   0.1250000  -0.1250000), wk =   0.0312500
        k(   21) = (   0.3750000   0.3750000   0.1250000), wk =   0.0312500
        k(   22) = (   0.3750000   0.3750000   0.3750000), wk =   0.0312500
        k(   23) = (   0.3750000   0.3750000  -0.3750000), wk =   0.0312500
        k(   24) = (   0.3750000   0.3750000  -0.1250000), wk =   0.0312500
        k(   25) = (   0.3750000  -0.3750000   0.1250000), wk =   0.0312500
        k(   26) = (   0.3750000  -0.3750000   0.3750000), wk =   0.0312500
        k(   27) = (   0.3750000  -0.3750000  -0.3750000), wk =   0.0312500
        k(   28) = (   0.3750000  -0.3750000  -0.1250000), wk =   0.0312500
        k(   29) = (   0.3750000  -0.1250000   0.1250000), wk =   0.0312500
        k(   30) = (   0.3750000  -0.1250000   0.3750000), wk =   0.0312500
        k(   31) = (   0.3750000  -0.1250000  -0.3750000), wk =   0.0312500
        k(   32) = (   0.3750000  -0.1250000  -0.1250000), wk =   0.0312500
        k(   33) = (  -0.3750000   0.1250000   0.1250000), wk =   0.0312500
        k(   34) = (  -0.3750000   0.1250000   0.3750000), wk =   0.0312500
        k(   35) = (  -0.3750000   0.1250000  -0.3750000), wk =   0.0312500
        k(   36) = (  -0.3750000   0.1250000  -0.1250000), wk =   0.0312500
        k(   37) = (  -0.3750000   0.3750000   0.1250000), wk =   0.0312500
        k(   38) = (  -0.3750000   0.3750000   0.3750000), wk =   0.0312500
        k(   39) = (  -0.3750000   0.3750000  -0.3750000), wk =   0.0312500
        k(   40) = (  -0.3750000   0.3750000  -0.1250000), wk =   0.0312500
        k(   41) = (  -0.3750000  -0.3750000   0.1250000), wk =   0.0312500
        k(   42) = (  -0.3750000  -0.3750000   0.3750000), wk =   0.0312500
        k(   43) = (  -0.3750000  -0.3750000  -0.3750000), wk =   0.0312500
        k(   44) = (  -0.3750000  -0.3750000  -0.1250000), wk =   0.0312500
        k(   45) = (  -0.3750000  -0.1250000   0.1250000), wk =   0.0312500
        k(   46) = (  -0.3750000  -0.1250000   0.3750000), wk =   0.0312500
        k(   47) = (  -0.3750000  -0.1250000  -0.3750000), wk =   0.0312500
        k(   48) = (  -0.3750000  -0.1250000  -0.1250000), wk =   0.0312500
        k(   49) = (  -0.1250000   0.1250000   0.1250000), wk =   0.0312500
        k(   50) = (  -0.1250000   0.1250000   0.3750000), wk =   0.0312500
        k(   51) = (  -0.1250000   0.1250000  -0.3750000), wk =   0.0312500
        k(   52) = (  -0.1250000   0.1250000  -0.1250000), wk =   0.0312500
        k(   53) = (  -0.1250000   0.3750000   0.1250000), wk =   0.0312500
        k(   54) = (  -0.1250000   0.3750000   0.3750000), wk =   0.0312500
        k(   55) = (  -0.1250000   0.3750000  -0.3750000), wk =   0.0312500
        k(   56) = (  -0.1250000   0.3750000  -0.1250000), wk =   0.0312500
        k(   57) = (  -0.1250000  -0.3750000   0.1250000), wk =   0.0312500
        k(   58) = (  -0.1250000  -0.3750000   0.3750000), wk =   0.0312500
        k(   59) = (  -0.1250000  -0.3750000  -0.3750000), wk =   0.0312500
        k(   60) = (  -0.1250000  -0.3750000  -0.1250000), wk =   0.0312500
        k(   61) = (  -0.1250000  -0.1250000   0.1250000), wk =   0.0312500
        k(   62) = (  -0.1250000  -0.1250000   0.3750000), wk =   0.0312500
        k(   63) = (  -0.1250000  -0.1250000  -0.3750000), wk =   0.0312500
        k(   64) = (  -0.1250000  -0.1250000  -0.1250000), wk =   0.0312500

     Dense  grid:    16889 G-vectors     FFT dimensions: (  36,  36,  36)

     Dynamical RAM for                 wfc:       0.16 MB

     Dynamical RAM for     wfc (w. buffer):       0.16 MB

     Dynamical RAM for           str. fact:       0.06 MB

     Dynamical RAM for           local pot:       0.00 MB

     Dynamical RAM for          nlocal pot:       0.08 MB

     Dynamical RAM for                qrad:       0.21 MB

     Dynamical RAM for          rho,v,vnew:       0.46 MB

     Dynamical RAM for           G-vectors:       0.27 MB

     Dynamical RAM for          h,s,v(r/c):       0.02 MB

     Dynamical RAM for          <psi|beta>:       0.00 MB

     Dynamical RAM for                 psi:       0.32 MB

     Dynamical RAM for                hpsi:       0.32 MB

     Dynamical RAM for      wfcinit/wfcrot:       0.33 MB

     Estimated static dynamical RAM per process >       1.83 MB

     Estimated max dynamical RAM per process >       2.50 MB

     Estimated total dynamical RAM >       9.99 MB

     The potential is recalculated from file :
     ../tmp/si.save/charge-density

     Starting wfcs are    8 randomized atomic wfcs +   12 random wfcs

     Band Structure Calculation
     Davidson diagonalization with overlap

     Computing kpt #:     1  of    64
     total cpu time spent up to now is        0.6 secs

     Computing kpt #:     2  of    64
     total cpu time spent up to now is        1.1 secs

     Computing kpt #:     3  of    64
     total cpu time spent up to now is        1.5 secs

     Computing kpt #:     4  of    64
     total cpu time spent up to now is        2.0 secs

     Computing kpt #:     5  of    64
     total cpu time spent up to now is        2.4 secs

     Computing kpt #:     6  of    64
     total cpu time spent up to now is        2.9 secs

     Computing kpt #:     7  of    64
     total cpu time spent up to now is        3.3 secs

     Computing kpt #:     8  of    64
     total cpu time spent up to now is        3.8 secs

     Computing kpt #:     9  of    64
     total cpu time spent up to now is        4.3 secs

     Computing kpt #:    10  of    64
     total cpu time spent up to now is        4.8 secs

     Computing kpt #:    11  of    64
     total cpu time spent up to now is        5.4 secs

     Computing kpt #:    12  of    64
     total cpu time spent up to now is        5.9 secs

     Computing kpt #:    13  of    64
     total cpu time spent up to now is        6.4 secs

     Computing kpt #:    14  of    64
     total cpu time spent up to now is        6.9 secs

     Computing kpt #:    15  of    64
     total cpu time spent up to now is        7.4 secs

     Computing kpt #:    16  of    64
     total cpu time spent up to now is        7.8 secs

     Computing kpt #:    17  of    64
     total cpu time spent up to now is        8.3 secs

     Computing kpt #:    18  of    64
     total cpu time spent up to now is        8.9 secs

     Computing kpt #:    19  of    64
     total cpu time spent up to now is        9.4 secs

     Computing kpt #:    20  of    64
     total cpu time spent up to now is        9.9 secs

     Computing kpt #:    21  of    64
     total cpu time spent up to now is       10.4 secs

     Computing kpt #:    22  of    64
     total cpu time spent up to now is       11.0 secs

     Computing kpt #:    23  of    64
     total cpu time spent up to now is       11.4 secs

     Computing kpt #:    24  of    64
     total cpu time spent up to now is       12.0 secs

     Computing kpt #:    25  of    64
     total cpu time spent up to now is       12.5 secs

     Computing kpt #:    26  of    64
     total cpu time spent up to now is       12.9 secs

     Computing kpt #:    27  of    64
     total cpu time spent up to now is       13.4 secs

     Computing kpt #:    28  of    64
     total cpu time spent up to now is       13.9 secs

     Computing kpt #:    29  of    64
     total cpu time spent up to now is       14.3 secs

     Computing kpt #:    30  of    64
     total cpu time spent up to now is       14.9 secs

     Computing kpt #:    31  of    64
     total cpu time spent up to now is       15.5 secs

     Computing kpt #:    32  of    64
     total cpu time spent up to now is       16.0 secs

     Computing kpt #:    33  of    64
     total cpu time spent up to now is       16.5 secs

     Computing kpt #:    34  of    64
     total cpu time spent up to now is       17.1 secs

     Computing kpt #:    35  of    64
     total cpu time spent up to now is       17.6 secs

     Computing kpt #:    36  of    64
     total cpu time spent up to now is       18.1 secs

     Computing kpt #:    37  of    64
     total cpu time spent up to now is       18.6 secs

     Computing kpt #:    38  of    64
     total cpu time spent up to now is       19.0 secs

     Computing kpt #:    39  of    64
     total cpu time spent up to now is       19.4 secs

     Computing kpt #:    40  of    64
     total cpu time spent up to now is       19.9 secs

     Computing kpt #:    41  of    64
     total cpu time spent up to now is       20.4 secs

     Computing kpt #:    42  of    64
     total cpu time spent up to now is       20.8 secs

     Computing kpt #:    43  of    64
     total cpu time spent up to now is       21.4 secs

     Computing kpt #:    44  of    64
     total cpu time spent up to now is       21.9 secs

     Computing kpt #:    45  of    64
     total cpu time spent up to now is       22.4 secs

     Computing kpt #:    46  of    64
     total cpu time spent up to now is       22.9 secs

     Computing kpt #:    47  of    64
     total cpu time spent up to now is       23.5 secs

     Computing kpt #:    48  of    64
     total cpu time spent up to now is       23.9 secs

     Computing kpt #:    49  of    64
     total cpu time spent up to now is       24.4 secs

     Computing kpt #:    50  of    64
     total cpu time spent up to now is       24.9 secs

     Computing kpt #:    51  of    64
     total cpu time spent up to now is       25.4 secs

     Computing kpt #:    52  of    64
     total cpu time spent up to now is       25.8 secs

     Computing kpt #:    53  of    64
     total cpu time spent up to now is       26.3 secs

     Computing kpt #:    54  of    64
     total cpu time spent up to now is       26.9 secs

     Computing kpt #:    55  of    64
     total cpu time spent up to now is       27.4 secs

     Computing kpt #:    56  of    64
     total cpu time spent up to now is       27.9 secs

     Computing kpt #:    57  of    64
     total cpu time spent up to now is       28.4 secs

     Computing kpt #:    58  of    64
     total cpu time spent up to now is       28.9 secs

     Computing kpt #:    59  of    64
     total cpu time spent up to now is       29.4 secs

     Computing kpt #:    60  of    64
     total cpu time spent up to now is       29.9 secs

     Computing kpt #:    61  of    64
     total cpu time spent up to now is       30.3 secs

     Computing kpt #:    62  of    64
     total cpu time spent up to now is       30.8 secs

     Computing kpt #:    63  of    64
     total cpu time spent up to now is       31.3 secs

     Computing kpt #:    64  of    64
     total cpu time spent up to now is       31.8 secs

     ethr =  1.25E-10,  avg # of iterations = 32.3

     total cpu time spent up to now is       31.8 secs

     End of band structure calculation

          k =-0.1250 0.1250 0.1250 (  2112 PWs)   bands (ev):

    -5.4693   4.6535   5.9390   5.9390   8.7572   9.2255   9.2255  11.0046
    13.4768  13.4768  15.0196  16.9478  18.6656  18.6656  22.8969  27.4058
    27.4058  27.7221  30.3243  30.3243

     occupation numbers 
     1.0000   1.0000   1.0000   1.0000   0.0000   0.0000   0.0000   0.0000
     0.0000   0.0000   0.0000   0.0000   0.0000   0.0000   0.0000   0.0000
     0.0000   0.0000   0.0000   0.0000

          k =-0.3750 0.3750-0.1250 (  2117 PWs)   bands (ev):

    -4.4233   1.6397   3.9318   5.4549   8.9854   9.9194  10.0949  12.5500
    12.7069  16.1049  16.3270  18.6878  20.2488  21.7015  22.6647  24.3252
    25.1166  28.0446  28.3280  29.2969

     occupation numbers 
     1.0000   1.0000   1.0000   1.0000   0.0000   0.0000   0.0000   0.0000
     0.0000   0.0000   0.0000   0.0000   0.0000   0.0000   0.0000   0.0000
     0.0000   0.0000   0.0000   0.0000

          k = 0.3750-0.3750 0.6250 (  2115 PWs)   bands (ev):

    -3.2517  -0.4853   3.9677   4.6691   8.4548   9.7643  10.3413  13.6140
    15.2379  16.7185  17.8013  17.8956  18.7863  21.3048  24.6076  25.9513
    26.6114  27.4120  28.3052  28.6550

     occupation numbers 
     1.0000   1.0000   1.0000   1.0000   0.0000   0.0000   0.0000   0.0000
     0.0000   0.0000   0.0000   0.0000   0.0000   0.0000   0.0000   0.0000
     0.0000   0.0000   0.0000   0.0000

          k = 0.1250-0.1250 0.3750 (  2106 PWs)   bands (ev):

    -4.9319   3.0343   4.9128   5.0023   8.3917   9.9714  10.7053  10.9941
    13.7651  14.4251  16.2850  17.8544  19.3926  20.6666  23.8672  24.3689
    25.5480  27.8995  27.9163  29.4031

     occupation numbers 
     1.0000   1.0000   1.0000   1.0000   0.0000   0.0000   0.0000   0.0000
     0.0000   0.0000   0.0000   0.0000   0.0000   0.0000   0.0000   0.0000
     0.0000   0.0000   0.0000   0.0000

          k = 0.1250 0.3750 0.3750 (  2117 PWs)   bands (ev):

    -4.4233   1.6397   3.9318   5.4549   8.9854   9.9194  10.0949  12.5500
    12.7069  16.1049  16.3270  18.6878  20.2488  21.7015  22.6647  24.3252
    25.1166  28.0446  28.3280  29.2969

     occupation numbers 
     1.0000   1.0000   1.0000   1.0000   0.0000   0.0000   0.0000   0.0000
     0.0000   0.0000   0.0000   0.0000   0.0000   0.0000   0.0000   0.0000
     0.0000   0.0000   0.0000   0.0000

          k =-0.1250 0.6250 0.1250 (  2114 PWs)   bands (ev):

    -3.8826   1.3387   3.5662   4.0259   7.6021   9.1446  12.2380  12.5003
    16.2237  16.4449  17.9159  19.4610  20.0224  21.0978  22.1531  23.3825
    24.6851  26.1878  28.2372  30.5041

     occupation numbers 
     1.0000   1.0000   1.0000   1.0000   0.0000   0.0000   0.0000   0.0000
     0.0000   0.0000   0.0000   0.0000   0.0000   0.0000   0.0000   0.0000
     0.0000   0.0000   0.0000   0.0000

          k = 0.6250-0.1250 0.8750 (  2132 PWs)   bands (ev):

    -2.2044  -0.6507   2.1802   3.2772   8.6387  10.5203  11.5220  13.6851
    14.6417  17.3214  18.4770  20.5826  21.6324  22.2614  23.8119  24.6428
    25.0142  25.7054  27.3887  28.0716

     occupation numbers 
     1.0000   1.0000   1.0000   1.0000   0.0000   0.0000   0.0000   0.0000
     0.0000   0.0000   0.0000   0.0000   0.0000   0.0000   0.0000   0.0000
     0.0000   0.0000   0.0000   0.0000

          k = 0.3750 0.1250 0.6250 (  2117 PWs)   bands (ev):

    -3.4548   0.4287   2.9235   4.3080   9.1269   9.8044  11.2651  12.1710
    15.2668  15.9737  18.2579  19.1845  20.4923  21.4015  23.5436  24.5169
    25.3137  27.2914  28.1832  29.1131

     occupation numbers 
     1.0000   1.0000   1.0000   1.0000   0.0000   0.0000   0.0000   0.0000
     0.0000   0.0000   0.0000   0.0000   0.0000   0.0000   0.0000   0.0000
     0.0000   0.0000   0.0000   0.0000

          k =-0.6250-0.3750-0.3750 (  2115 PWs)   bands (ev):

    -3.2517  -0.4853   3.9677   4.6691   8.4548   9.7643  10.3413  13.6140
    15.2379  16.7185  17.8013  17.8956  18.7863  21.3048  24.6076  25.9513
    26.6114  27.4120  28.3052  28.6550

     occupation numbers 
     1.0000   1.0000   1.0000   1.0000   0.0000   0.0000   0.0000   0.0000
     0.0000   0.0000   0.0000   0.0000   0.0000   0.0000   0.0000   0.0000
     0.0000   0.0000   0.0000   0.0000

          k =-0.8750-0.1250-0.6250 (  2132 PWs)   bands (ev):

    -2.2044  -0.6507   2.1802   3.2772   8.6387  10.5203  11.5220  13.6851
    14.6417  17.3214  18.4770  20.5826  21.6324  22.2614  23.8119  24.6428
    25.0142  25.7054  27.3887  28.0716

     occupation numbers 
     1.0000   1.0000   1.0000   1.0000   0.0000   0.0000   0.0000   0.0000
     0.0000   0.0000   0.0000   0.0000   0.0000   0.0000   0.0000   0.0000
     0.0000   0.0000   0.0000   0.0000

          k =-0.1250-0.8750 0.1250 (  2127 PWs)   bands (ev):

    -2.3829  -0.5478   2.8043   3.5518   7.1465   8.2185  14.5052  14.5974
    17.0020  17.0429  18.5584  19.1330  21.2028  21.2071  22.2080  24.9674
    25.1059  25.7231  27.0688  28.5905

     occupation numbers 
     1.0000   1.0000   1.0000   1.0000   0.0000   0.0000   0.0000   0.0000
     0.0000   0.0000   0.0000   0.0000   0.0000   0.0000   0.0000   0.0000
     0.0000   0.0000   0.0000   0.0000

          k =-0.3750-0.6250-0.1250 (  2117 PWs)   bands (ev):

    -3.4548   0.4287   2.9235   4.3080   9.1269   9.8044  11.2651  12.1710
    15.2668  15.9737  18.2579  19.1845  20.4923  21.4015  23.5436  24.5169
    25.3137  27.2914  28.1832  29.1131

     occupation numbers 
     1.0000   1.0000   1.0000   1.0000   0.0000   0.0000   0.0000   0.0000
     0.0000   0.0000   0.0000   0.0000   0.0000   0.0000   0.0000   0.0000
     0.0000   0.0000   0.0000   0.0000

          k =-0.3750-0.1250-0.1250 (  2106 PWs)   bands (ev):

    -4.9319   3.0343   4.9128   5.0023   8.3917   9.9714  10.7053  10.9941
    13.7651  14.4251  16.2850  17.8544  19.3926  20.6666  23.8672  24.3689
    25.5480  27.8995  27.9163  29.4031

     occupation numbers 
     1.0000   1.0000   1.0000   1.0000   0.0000   0.0000   0.0000   0.0000
     0.0000   0.0000   0.0000   0.0000   0.0000   0.0000   0.0000   0.0000
     0.0000   0.0000   0.0000   0.0000

          k =-0.6250 0.1250-0.3750 (  2117 PWs)   bands (ev):

    -3.4548   0.4287   2.9235   4.3080   9.1269   9.8044  11.2651  12.1710
    15.2668  15.9737  18.2579  19.1845  20.4923  21.4015  23.5436  24.5169
    25.3137  27.2914  28.1832  29.1131

     occupation numbers 
     1.0000   1.0000   1.0000   1.0000   0.0000   0.0000   0.0000   0.0000
     0.0000   0.0000   0.0000   0.0000   0.0000   0.0000   0.0000   0.0000
     0.0000   0.0000   0.0000   0.0000

          k = 0.1250-0.6250 0.3750 (  2117 PWs)   bands (ev):

    -3.4548   0.4287   2.9235   4.3080   9.1269   9.8044  11.2651  12.1710
    15.2668  15.9737  18.2579  19.1845  20.4923  21.4015  23.5436  24.5169
    25.3137  27.2914  28.1832  29.1131

     occupation numbers 
     1.0000   1.0000   1.0000   1.0000   0.0000   0.0000   0.0000   0.0000
     0.0000   0.0000   0.0000   0.0000   0.0000   0.0000   0.0000   0.0000
     0.0000   0.0000   0.0000   0.0000

          k =-0.1250-0.3750 0.1250 (  2106 PWs)   bands (ev):

    -4.9319   3.0343   4.9128   5.0023   8.3917   9.9714  10.7053  10.9941
    13.7651  14.4251  16.2850  17.8544  19.3926  20.6666  23.8672  24.3689
    25.5480  27.8995  27.9163  29.4031

     occupation numbers 
     1.0000   1.0000   1.0000   1.0000   0.0000   0.0000   0.0000   0.0000
     0.0000   0.0000   0.0000   0.0000   0.0000   0.0000   0.0000   0.0000
     0.0000   0.0000   0.0000   0.0000

          k =-0.3750-0.1250 0.3750 (  2117 PWs)   bands (ev):

    -4.4233   1.6397   3.9318   5.4549   8.9854   9.9194  10.0949  12.5500
    12.7069  16.1049  16.3270  18.6878  20.2488  21.7015  22.6647  24.3252
    25.1166  28.0446  28.3280  29.2969

     occupation numbers 
     1.0000   1.0000   1.0000   1.0000   0.0000   0.0000   0.0000   0.0000
     0.0000   0.0000   0.0000   0.0000   0.0000   0.0000   0.0000   0.0000
     0.0000   0.0000   0.0000   0.0000

          k =-0.6250 0.1250 0.1250 (  2114 PWs)   bands (ev):

    -3.8826   1.3387   3.5662   4.0259   7.6021   9.1446  12.2380  12.5003
    16.2237  16.4449  17.9159  19.4610  20.0224  21.0978  22.1531  23.3825
    24.6851  26.1878  28.2372  30.5041

     occupation numbers 
     1.0000   1.0000   1.0000   1.0000   0.0000   0.0000   0.0000   0.0000
     0.0000   0.0000   0.0000   0.0000   0.0000   0.0000   0.0000   0.0000
     0.0000   0.0000   0.0000   0.0000

          k = 0.1250-0.6250 0.8750 (  2132 PWs)   bands (ev):

    -2.2044  -0.6507   2.1802   3.2772   8.6387  10.5203  11.5220  13.6851
    14.6417  17.3214  18.4770  20.5826  21.6324  22.2614  23.8119  24.6428
    25.0142  25.7054  27.3887  28.0716

     occupation numbers 
     1.0000   1.0000   1.0000   1.0000   0.0000   0.0000   0.0000   0.0000
     0.0000   0.0000   0.0000   0.0000   0.0000   0.0000   0.0000   0.0000
     0.0000   0.0000   0.0000   0.0000

          k =-0.1250-0.3750 0.6250 (  2117 PWs)   bands (ev):

    -3.4548   0.4287   2.9235   4.3080   9.1269   9.8044  11.2651  12.1710
    15.2668  15.9737  18.2579  19.1845  20.4923  21.4015  23.5436  24.5169
    25.3137  27.2914  28.1832  29.1131

     occupation numbers 
     1.0000   1.0000   1.0000   1.0000   0.0000   0.0000   0.0000   0.0000
     0.0000   0.0000   0.0000   0.0000   0.0000   0.0000   0.0000   0.0000
     0.0000   0.0000   0.0000   0.0000

          k =-0.1250 0.1250 0.6250 (  2114 PWs)   bands (ev):

    -3.8826   1.3387   3.5662   4.0259   7.6021   9.1446  12.2380  12.5003
    16.2237  16.4449  17.9159  19.4610  20.0224  21.0978  22.1531  23.3825
    24.6851  26.1878  28.2372  30.5041

     occupation numbers 
     1.0000   1.0000   1.0000   1.0000   0.0000   0.0000   0.0000   0.0000
     0.0000   0.0000   0.0000   0.0000   0.0000   0.0000   0.0000   0.0000
     0.0000   0.0000   0.0000   0.0000

          k =-0.3750 0.3750 0.3750 (  2114 PWs)   bands (ev):

    -3.9803   0.3214   5.1448   5.1448   7.9422   9.6855   9.6855  14.1347
    14.8223  14.8223  15.9598  20.0136  20.0136  20.3481  22.9511  24.8184
    24.8184  29.2625  30.2368  30.3328

     occupation numbers 
     1.0000   1.0000   1.0000   1.0000   0.0000   0.0000   0.0000   0.0000
     0.0000   0.0000   0.0000   0.0000   0.0000   0.0000   0.0000   0.0000
     0.0000   0.0000   0.0000   0.0000

          k = 0.3750-0.3750 1.1250 (  2125 PWs)   bands (ev):

    -2.7516  -0.3608   2.2486   4.3467   8.0967  11.7061  11.7154  13.2051
    14.2191  14.2673  18.8441  21.0908  21.3932  22.2880  22.7316  24.6849
    25.7282  26.2771  28.1571  28.4003

     occupation numbers 
     1.0000   1.0000   1.0000   1.0000   0.0000   0.0000   0.0000   0.0000
     0.0000   0.0000   0.0000   0.0000   0.0000   0.0000   0.0000   0.0000
     0.0000   0.0000   0.0000   0.0000

          k = 0.1250-0.1250 0.8750 (  2127 PWs)   bands (ev):

    -2.3829  -0.5478   2.8043   3.5518   7.1465   8.2185  14.5052  14.5974
    17.0020  17.0429  18.5584  19.1330  21.2028  21.2071  22.2080  24.9674
    25.1059  25.7231  27.0688  28.5905

     occupation numbers 
     1.0000   1.0000   1.0000   1.0000   0.0000   0.0000   0.0000   0.0000
     0.0000   0.0000   0.0000   0.0000   0.0000   0.0000   0.0000   0.0000
     0.0000   0.0000   0.0000   0.0000

          k =-0.8750-0.6250-0.1250 (  2132 PWs)   bands (ev):

    -2.2044  -0.6507   2.1802   3.2772   8.6387  10.5203  11.5220  13.6851
    14.6417  17.3214  18.4770  20.5826  21.6324  22.2614  23.8119  24.6428
    25.0142  25.7054  27.3887  28.0716

     occupation numbers 
     1.0000   1.0000   1.0000   1.0000   0.0000   0.0000   0.0000   0.0000
     0.0000   0.0000   0.0000   0.0000   0.0000   0.0000   0.0000   0.0000
     0.0000   0.0000   0.0000   0.0000

          k =-1.1250-0.3750-0.3750 (  2125 PWs)   bands (ev):

    -2.7516  -0.3608   2.2486   4.3467   8.0967  11.7061  11.7154  13.2051
    14.2191  14.2673  18.8441  21.0908  21.3932  22.2880  22.7316  24.6849
    25.7282  26.2771  28.1571  28.4003

     occupation numbers 
     1.0000   1.0000   1.0000   1.0000   0.0000   0.0000   0.0000   0.0000
     0.0000   0.0000   0.0000   0.0000   0.0000   0.0000   0.0000   0.0000
     0.0000   0.0000   0.0000   0.0000

          k =-0.3750-1.1250 0.3750 (  2125 PWs)   bands (ev):

    -2.7516  -0.3608   2.2486   4.3467   8.0967  11.7061  11.7154  13.2051
    14.2191  14.2673  18.8441  21.0908  21.3932  22.2880  22.7316  24.6849
    25.7282  26.2771  28.1571  28.4003

     occupation numbers 
     1.0000   1.0000   1.0000   1.0000   0.0000   0.0000   0.0000   0.0000
     0.0000   0.0000   0.0000   0.0000   0.0000   0.0000   0.0000   0.0000
     0.0000   0.0000   0.0000   0.0000

          k =-0.6250-0.8750 0.1250 (  2132 PWs)   bands (ev):

    -2.2044  -0.6507   2.1802   3.2772   8.6387  10.5203  11.5220  13.6851
    14.6417  17.3214  18.4770  20.5826  21.6324  22.2614  23.8119  24.6428
    25.0142  25.7054  27.3887  28.0716

     occupation numbers 
     1.0000   1.0000   1.0000   1.0000   0.0000   0.0000   0.0000   0.0000
     0.0000   0.0000   0.0000   0.0000   0.0000   0.0000   0.0000   0.0000
     0.0000   0.0000   0.0000   0.0000

          k =-0.6250-0.3750 0.1250 (  2117 PWs)   bands (ev):

    -3.4548   0.4287   2.9235   4.3080   9.1269   9.8044  11.2651  12.1710
    15.2668  15.9737  18.2579  19.1845  20.4923  21.4015  23.5436  24.5169
    25.3137  27.2914  28.1832  29.1131

     occupation numbers 
     1.0000   1.0000   1.0000   1.0000   0.0000   0.0000   0.0000   0.0000
     0.0000   0.0000   0.0000   0.0000   0.0000   0.0000   0.0000   0.0000
     0.0000   0.0000   0.0000   0.0000

          k =-0.8750-0.1250-0.1250 (  2127 PWs)   bands (ev):

    -2.3829  -0.5478   2.8043   3.5518   7.1465   8.2185  14.5052  14.5974
    17.0020  17.0429  18.5584  19.1330  21.2028  21.2071  22.2080  24.9674
    25.1059  25.7231  27.0688  28.5905

     occupation numbers 
     1.0000   1.0000   1.0000   1.0000   0.0000   0.0000   0.0000   0.0000
     0.0000   0.0000   0.0000   0.0000   0.0000   0.0000   0.0000   0.0000
     0.0000   0.0000   0.0000   0.0000

          k =-0.1250-0.8750 0.6250 (  2132 PWs)   bands (ev):

    -2.2044  -0.6507   2.1802   3.2772   8.6387  10.5203  11.5220  13.6851
    14.6417  17.3214  18.4770  20.5826  21.6324  22.2614  23.8119  24.6428
    25.0142  25.7054  27.3887  28.0716

     occupation numbers 
     1.0000   1.0000   1.0000   1.0000   0.0000   0.0000   0.0000   0.0000
     0.0000   0.0000   0.0000   0.0000   0.0000   0.0000   0.0000   0.0000
     0.0000   0.0000   0.0000   0.0000

          k =-0.3750-0.6250 0.3750 (  2115 PWs)   bands (ev):

    -3.2517  -0.4853   3.9677   4.6691   8.4548   9.7643  10.3413  13.6140
    15.2379  16.7185  17.8013  17.8956  18.7863  21.3048  24.6076  25.9513
    26.6114  27.4120  28.3052  28.6550

     occupation numbers 
     1.0000   1.0000   1.0000   1.0000   0.0000   0.0000   0.0000   0.0000
     0.0000   0.0000   0.0000   0.0000   0.0000   0.0000   0.0000   0.0000
     0.0000   0.0000   0.0000   0.0000

          k = 0.3750 0.6250-0.3750 (  2115 PWs)   bands (ev):

    -3.2517  -0.4853   3.9677   4.6691   8.4548   9.7643  10.3413  13.6140
    15.2379  16.7185  17.8013  17.8956  18.7863  21.3048  24.6076  25.9513
    26.6114  27.4120  28.3052  28.6550

     occupation numbers 
     1.0000   1.0000   1.0000   1.0000   0.0000   0.0000   0.0000   0.0000
     0.0000   0.0000   0.0000   0.0000   0.0000   0.0000   0.0000   0.0000
     0.0000   0.0000   0.0000   0.0000

          k = 0.1250 0.8750-0.6250 (  2132 PWs)   bands (ev):

    -2.2044  -0.6507   2.1802   3.2772   8.6387  10.5203  11.5220  13.6851
    14.6417  17.3214  18.4770  20.5826  21.6324  22.2614  23.8119  24.6428
    25.0142  25.7054  27.3887  28.0716

     occupation numbers 
     1.0000   1.0000   1.0000   1.0000   0.0000   0.0000   0.0000   0.0000
     0.0000   0.0000   0.0000   0.0000   0.0000   0.0000   0.0000   0.0000
     0.0000   0.0000   0.0000   0.0000

          k = 0.8750 0.1250 0.1250 (  2127 PWs)   bands (ev):

    -2.3829  -0.5478   2.8043   3.5518   7.1465   8.2185  14.5052  14.5974
    17.0020  17.0429  18.5584  19.1330  21.2028  21.2071  22.2080  24.9674
    25.1059  25.7231  27.0688  28.5905

     occupation numbers 
     1.0000   1.0000   1.0000   1.0000   0.0000   0.0000   0.0000   0.0000
     0.0000   0.0000   0.0000   0.0000   0.0000   0.0000   0.0000   0.0000
     0.0000   0.0000   0.0000   0.0000

          k = 0.6250 0.3750-0.1250 (  2117 PWs)   bands (ev):

    -3.4548   0.4287   2.9235   4.3080   9.1269   9.8044  11.2651  12.1710
    15.2668  15.9737  18.2579  19.1845  20.4923  21.4015  23.5436  24.5169
    25.3137  27.2914  28.1832  29.1131

     occupation numbers 
     1.0000   1.0000   1.0000   1.0000   0.0000   0.0000   0.0000   0.0000
     0.0000   0.0000   0.0000   0.0000   0.0000   0.0000   0.0000   0.0000
     0.0000   0.0000   0.0000   0.0000

          k = 0.6250 0.8750-0.1250 (  2132 PWs)   bands (ev):

    -2.2044  -0.6507   2.1802   3.2772   8.6387  10.5203  11.5220  13.6851
    14.6417  17.3214  18.4770  20.5826  21.6324  22.2614  23.8119  24.6428
    25.0142  25.7054  27.3887  28.0716

     occupation numbers 
     1.0000   1.0000   1.0000   1.0000   0.0000   0.0000   0.0000   0.0000
     0.0000   0.0000   0.0000   0.0000   0.0000   0.0000   0.0000   0.0000
     0.0000   0.0000   0.0000   0.0000

          k = 0.3750 1.1250-0.3750 (  2125 PWs)   bands (ev):

    -2.7516  -0.3608   2.2486   4.3467   8.0967  11.7061  11.7154  13.2051
    14.2191  14.2673  18.8441  21.0908  21.3932  22.2880  22.7316  24.6849
    25.7282  26.2771  28.1571  28.4003

     occupation numbers 
     1.0000   1.0000   1.0000   1.0000   0.0000   0.0000   0.0000   0.0000
     0.0000   0.0000   0.0000   0.0000   0.0000   0.0000   0.0000   0.0000
     0.0000   0.0000   0.0000   0.0000

          k = 1.1250 0.3750 0.3750 (  2125 PWs)   bands (ev):

    -2.7516  -0.3608   2.2486   4.3467   8.0967  11.7061  11.7154  13.2051
    14.2191  14.2673  18.8441  21.0908  21.3932  22.2880  22.7316  24.6849
    25.7282  26.2771  28.1571  28.4003

     occupation numbers 
     1.0000   1.0000   1.0000   1.0000   0.0000   0.0000   0.0000   0.0000
     0.0000   0.0000   0.0000   0.0000   0.0000   0.0000   0.0000   0.0000
     0.0000   0.0000   0.0000   0.0000

          k = 0.8750 0.6250 0.1250 (  2132 PWs)   bands (ev):

    -2.2044  -0.6507   2.1802   3.2772   8.6387  10.5203  11.5220  13.6851
    14.6417  17.3214  18.4770  20.5826  21.6324  22.2614  23.8119  24.6428
    25.0142  25.7054  27.3887  28.0716

     occupation numbers 
     1.0000   1.0000   1.0000   1.0000   0.0000   0.0000   0.0000   0.0000
     0.0000   0.0000   0.0000   0.0000   0.0000   0.0000   0.0000   0.0000
     0.0000   0.0000   0.0000   0.0000

          k =-0.1250 0.1250-0.8750 (  2127 PWs)   bands (ev):

    -2.3829  -0.5478   2.8043   3.5518   7.1465   8.2185  14.5052  14.5974
    17.0020  17.0429  18.5584  19.1330  21.2028  21.2071  22.2080  24.9674
    25.1059  25.7231  27.0688  28.5905

     occupation numbers 
     1.0000   1.0000   1.0000   1.0000   0.0000   0.0000   0.0000   0.0000
     0.0000   0.0000   0.0000   0.0000   0.0000   0.0000   0.0000   0.0000
     0.0000   0.0000   0.0000   0.0000

          k =-0.3750 0.3750-1.1250 (  2125 PWs)   bands (ev):

    -2.7516  -0.3608   2.2486   4.3467   8.0967  11.7061  11.7154  13.2051
    14.2191  14.2673  18.8441  21.0908  21.3932  22.2880  22.7316  24.6849
    25.7282  26.2771  28.1571  28.4003

     occupation numbers 
     1.0000   1.0000   1.0000   1.0000   0.0000   0.0000   0.0000   0.0000
     0.0000   0.0000   0.0000   0.0000   0.0000   0.0000   0.0000   0.0000
     0.0000   0.0000   0.0000   0.0000

          k = 0.3750-0.3750-0.3750 (  2114 PWs)   bands (ev):

    -3.9803   0.3214   5.1448   5.1448   7.9422   9.6855   9.6855  14.1347
    14.8223  14.8223  15.9598  20.0136  20.0136  20.3481  22.9511  24.8184
    24.8184  29.2625  30.2368  30.3328

     occupation numbers 
     1.0000   1.0000   1.0000   1.0000   0.0000   0.0000   0.0000   0.0000
     0.0000   0.0000   0.0000   0.0000   0.0000   0.0000   0.0000   0.0000
     0.0000   0.0000   0.0000   0.0000

          k = 0.1250-0.1250-0.6250 (  2114 PWs)   bands (ev):

    -3.8826   1.3387   3.5662   4.0259   7.6021   9.1446  12.2380  12.5003
    16.2237  16.4449  17.9159  19.4610  20.0224  21.0978  22.1531  23.3825
    24.6851  26.1878  28.2372  30.5041

     occupation numbers 
     1.0000   1.0000   1.0000   1.0000   0.0000   0.0000   0.0000   0.0000
     0.0000   0.0000   0.0000   0.0000   0.0000   0.0000   0.0000   0.0000
     0.0000   0.0000   0.0000   0.0000

          k = 0.1250 0.3750-0.6250 (  2117 PWs)   bands (ev):

    -3.4548   0.4287   2.9235   4.3080   9.1269   9.8044  11.2651  12.1710
    15.2668  15.9737  18.2579  19.1845  20.4923  21.4015  23.5436  24.5169
    25.3137  27.2914  28.1832  29.1131

     occupation numbers 
     1.0000   1.0000   1.0000   1.0000   0.0000   0.0000   0.0000   0.0000
     0.0000   0.0000   0.0000   0.0000   0.0000   0.0000   0.0000   0.0000
     0.0000   0.0000   0.0000   0.0000

          k =-0.1250 0.6250-0.8750 (  2132 PWs)   bands (ev):

    -2.2044  -0.6507   2.1802   3.2772   8.6387  10.5203  11.5220  13.6851
    14.6417  17.3214  18.4770  20.5826  21.6324  22.2614  23.8119  24.6428
    25.0142  25.7054  27.3887  28.0716

     occupation numbers 
     1.0000   1.0000   1.0000   1.0000   0.0000   0.0000   0.0000   0.0000
     0.0000   0.0000   0.0000   0.0000   0.0000   0.0000   0.0000   0.0000
     0.0000   0.0000   0.0000   0.0000

          k = 0.6250-0.1250-0.1250 (  2114 PWs)   bands (ev):

    -3.8826   1.3387   3.5662   4.0259   7.6021   9.1446  12.2380  12.5003
    16.2237  16.4449  17.9159  19.4610  20.0224  21.0978  22.1531  23.3825
    24.6851  26.1878  28.2372  30.5041

     occupation numbers 
     1.0000   1.0000   1.0000   1.0000   0.0000   0.0000   0.0000   0.0000
     0.0000   0.0000   0.0000   0.0000   0.0000   0.0000   0.0000   0.0000
     0.0000   0.0000   0.0000   0.0000

          k = 0.3750 0.1250-0.3750 (  2117 PWs)   bands (ev):

    -4.4233   1.6397   3.9318   5.4549   8.9854   9.9194  10.0949  12.5500
    12.7069  16.1049  16.3270  18.6878  20.2488  21.7015  22.6647  24.3252
    25.1166  28.0446  28.3280  29.2969

     occupation numbers 
     1.0000   1.0000   1.0000   1.0000   0.0000   0.0000   0.0000   0.0000
     0.0000   0.0000   0.0000   0.0000   0.0000   0.0000   0.0000   0.0000
     0.0000   0.0000   0.0000   0.0000

          k = 0.1250 0.3750-0.1250 (  2106 PWs)   bands (ev):

    -4.9319   3.0343   4.9128   5.0023   8.3917   9.9714  10.7053  10.9941
    13.7651  14.4251  16.2850  17.8544  19.3926  20.6666  23.8672  24.3689
    25.5480  27.8995  27.9163  29.4031

     occupation numbers 
     1.0000   1.0000   1.0000   1.0000   0.0000   0.0000   0.0000   0.0000
     0.0000   0.0000   0.0000   0.0000   0.0000   0.0000   0.0000   0.0000
     0.0000   0.0000   0.0000   0.0000

          k =-0.1250 0.6250-0.3750 (  2117 PWs)   bands (ev):

    -3.4548   0.4287   2.9235   4.3080   9.1269   9.8044  11.2651  12.1710
    15.2668  15.9737  18.2579  19.1845  20.4923  21.4015  23.5436  24.5169
    25.3137  27.2914  28.1832  29.1131

     occupation numbers 
     1.0000   1.0000   1.0000   1.0000   0.0000   0.0000   0.0000   0.0000
     0.0000   0.0000   0.0000   0.0000   0.0000   0.0000   0.0000   0.0000
     0.0000   0.0000   0.0000   0.0000

          k = 0.6250-0.1250 0.3750 (  2117 PWs)   bands (ev):

    -3.4548   0.4287   2.9235   4.3080   9.1269   9.8044  11.2651  12.1710
    15.2668  15.9737  18.2579  19.1845  20.4923  21.4015  23.5436  24.5169
    25.3137  27.2914  28.1832  29.1131

     occupation numbers 
     1.0000   1.0000   1.0000   1.0000   0.0000   0.0000   0.0000   0.0000
     0.0000   0.0000   0.0000   0.0000   0.0000   0.0000   0.0000   0.0000
     0.0000   0.0000   0.0000   0.0000

          k = 0.3750 0.1250 0.1250 (  2106 PWs)   bands (ev):

    -4.9319   3.0343   4.9128   5.0023   8.3917   9.9714  10.7053  10.9941
    13.7651  14.4251  16.2850  17.8544  19.3926  20.6666  23.8672  24.3689
    25.5480  27.8995  27.9163  29.4031

     occupation numbers 
     1.0000   1.0000   1.0000   1.0000   0.0000   0.0000   0.0000   0.0000
     0.0000   0.0000   0.0000   0.0000   0.0000   0.0000   0.0000   0.0000
     0.0000   0.0000   0.0000   0.0000

          k = 0.3750 0.6250 0.1250 (  2117 PWs)   bands (ev):

    -3.4548   0.4287   2.9235   4.3080   9.1269   9.8044  11.2651  12.1710
    15.2668  15.9737  18.2579  19.1845  20.4923  21.4015  23.5436  24.5169
    25.3137  27.2914  28.1832  29.1131

     occupation numbers 
     1.0000   1.0000   1.0000   1.0000   0.0000   0.0000   0.0000   0.0000
     0.0000   0.0000   0.0000   0.0000   0.0000   0.0000   0.0000   0.0000
     0.0000   0.0000   0.0000   0.0000

          k = 0.1250 0.8750-0.1250 (  2127 PWs)   bands (ev):

    -2.3829  -0.5478   2.8043   3.5518   7.1465   8.2185  14.5052  14.5974
    17.0020  17.0429  18.5584  19.1330  21.2028  21.2071  22.2080  24.9674
    25.1059  25.7231  27.0688  28.5905

     occupation numbers 
     1.0000   1.0000   1.0000   1.0000   0.0000   0.0000   0.0000   0.0000
     0.0000   0.0000   0.0000   0.0000   0.0000   0.0000   0.0000   0.0000
     0.0000   0.0000   0.0000   0.0000

          k = 0.8750 0.1250 0.6250 (  2132 PWs)   bands (ev):

    -2.2044  -0.6507   2.1802   3.2772   8.6387  10.5203  11.5220  13.6851
    14.6417  17.3214  18.4770  20.5826  21.6324  22.2614  23.8119  24.6428
    25.0142  25.7054  27.3887  28.0716

     occupation numbers 
     1.0000   1.0000   1.0000   1.0000   0.0000   0.0000   0.0000   0.0000
     0.0000   0.0000   0.0000   0.0000   0.0000   0.0000   0.0000   0.0000
     0.0000   0.0000   0.0000   0.0000

          k = 0.6250 0.3750 0.3750 (  2115 PWs)   bands (ev):

    -3.2517  -0.4853   3.9677   4.6691   8.4548   9.7643  10.3413  13.6140
    15.2379  16.7185  17.8013  17.8956  18.7863  21.3048  24.6076  25.9513
    26.6114  27.4120  28.3052  28.6550

     occupation numbers 
     1.0000   1.0000   1.0000   1.0000   0.0000   0.0000   0.0000   0.0000
     0.0000   0.0000   0.0000   0.0000   0.0000   0.0000   0.0000   0.0000
     0.0000   0.0000   0.0000   0.0000

          k =-0.3750-0.1250-0.6250 (  2117 PWs)   bands (ev):

    -3.4548   0.4287   2.9235   4.3080   9.1269   9.8044  11.2651  12.1710
    15.2668  15.9737  18.2579  19.1845  20.4923  21.4015  23.5436  24.5169
    25.3137  27.2914  28.1832  29.1131

     occupation numbers 
     1.0000   1.0000   1.0000   1.0000   0.0000   0.0000   0.0000   0.0000
     0.0000   0.0000   0.0000   0.0000   0.0000   0.0000   0.0000   0.0000
     0.0000   0.0000   0.0000   0.0000

          k =-0.6250 0.1250-0.8750 (  2132 PWs)   bands (ev):

    -2.2044  -0.6507   2.1802   3.2772   8.6387  10.5203  11.5220  13.6851
    14.6417  17.3214  18.4770  20.5826  21.6324  22.2614  23.8119  24.6428
    25.0142  25.7054  27.3887  28.0716

     occupation numbers 
     1.0000   1.0000   1.0000   1.0000   0.0000   0.0000   0.0000   0.0000
     0.0000   0.0000   0.0000   0.0000   0.0000   0.0000   0.0000   0.0000
     0.0000   0.0000   0.0000   0.0000

          k = 0.1250-0.6250-0.1250 (  2114 PWs)   bands (ev):

    -3.8826   1.3387   3.5662   4.0259   7.6021   9.1446  12.2380  12.5003
    16.2237  16.4449  17.9159  19.4610  20.0224  21.0978  22.1531  23.3825
    24.6851  26.1878  28.2372  30.5041

     occupation numbers 
     1.0000   1.0000   1.0000   1.0000   0.0000   0.0000   0.0000   0.0000
     0.0000   0.0000   0.0000   0.0000   0.0000   0.0000   0.0000   0.0000
     0.0000   0.0000   0.0000   0.0000

          k =-0.1250-0.3750-0.3750 (  2117 PWs)   bands (ev):

    -4.4233   1.6397   3.9318   5.4549   8.9854   9.9194  10.0949  12.5500
    12.7069  16.1049  16.3270  18.6878  20.2488  21.7015  22.6647  24.3252
    25.1166  28.0446  28.3280  29.2969

     occupation numbers 
     1.0000   1.0000   1.0000   1.0000   0.0000   0.0000   0.0000   0.0000
     0.0000   0.0000   0.0000   0.0000   0.0000   0.0000   0.0000   0.0000
     0.0000   0.0000   0.0000   0.0000

          k =-0.1250 0.1250-0.3750 (  2106 PWs)   bands (ev):

    -4.9319   3.0343   4.9128   5.0023   8.3917   9.9714  10.7053  10.9941
    13.7651  14.4251  16.2850  17.8544  19.3926  20.6666  23.8672  24.3689
    25.5480  27.8995  27.9163  29.4031

     occupation numbers 
     1.0000   1.0000   1.0000   1.0000   0.0000   0.0000   0.0000   0.0000
     0.0000   0.0000   0.0000   0.0000   0.0000   0.0000   0.0000   0.0000
     0.0000   0.0000   0.0000   0.0000

          k =-0.3750 0.3750-0.6250 (  2115 PWs)   bands (ev):

    -3.2517  -0.4853   3.9677   4.6691   8.4548   9.7643  10.3413  13.6140
    15.2379  16.7185  17.8013  17.8956  18.7863  21.3048  24.6076  25.9513
    26.6114  27.4120  28.3052  28.6550

     occupation numbers 
     1.0000   1.0000   1.0000   1.0000   0.0000   0.0000   0.0000   0.0000
     0.0000   0.0000   0.0000   0.0000   0.0000   0.0000   0.0000   0.0000
     0.0000   0.0000   0.0000   0.0000

          k = 0.3750-0.3750 0.1250 (  2117 PWs)   bands (ev):

    -4.4233   1.6397   3.9318   5.4549   8.9854   9.9194  10.0949  12.5500
    12.7069  16.1049  16.3270  18.6878  20.2488  21.7015  22.6647  24.3252
    25.1166  28.0446  28.3280  29.2969

     occupation numbers 
     1.0000   1.0000   1.0000   1.0000   0.0000   0.0000   0.0000   0.0000
     0.0000   0.0000   0.0000   0.0000   0.0000   0.0000   0.0000   0.0000
     0.0000   0.0000   0.0000   0.0000

          k = 0.1250-0.1250-0.1250 (  2112 PWs)   bands (ev):

    -5.4693   4.6535   5.9390   5.9390   8.7572   9.2255   9.2255  11.0046
    13.4768  13.4768  15.0196  16.9478  18.6656  18.6656  22.8969  27.4058
    27.4058  27.7221  30.3243  30.3243

     occupation numbers 
     1.0000   1.0000   1.0000   1.0000   0.0000   0.0000   0.0000   0.0000
     0.0000   0.0000   0.0000   0.0000   0.0000   0.0000   0.0000   0.0000
     0.0000   0.0000   0.0000   0.0000

     the Fermi energy is     6.8966 ev
     (compare with:     5.9390 eV, computed in scf)

     Writing output data file ../tmp/si.save/

     init_run     :      0.03s CPU      0.04s WALL (       1 calls)
     electrons    :     30.75s CPU     31.56s WALL (       1 calls)

     Called by init_run:
     wfcinit      :      0.00s CPU      0.00s WALL (       1 calls)
     wfcinit:atom :      0.01s CPU      0.01s WALL (      64 calls)
     wfcinit:wfcr :      1.00s CPU      1.04s WALL (      64 calls)
     potinit      :      0.01s CPU      0.01s WALL (       1 calls)
     hinit0       :      0.02s CPU      0.02s WALL (       1 calls)

     Called by electrons:
     c_bands      :     30.74s CPU     31.53s WALL (       1 calls)
     v_of_rho     :      0.01s CPU      0.01s WALL (       1 calls)
     v_h          :      0.00s CPU      0.00s WALL (       1 calls)
     v_xc         :      0.01s CPU      0.01s WALL (       1 calls)

     Called by c_bands:
     init_us_2    :      0.01s CPU      0.01s WALL (      64 calls)
     cegterg      :     29.66s CPU     30.41s WALL (     136 calls)

     Called by sum_band:

     Called by *egterg:
     cdiaghg      :      2.69s CPU      2.76s WALL (    2131 calls)
     cegterg:over :      3.70s CPU      3.79s WALL (    2067 calls)
     cegterg:upda :      1.90s CPU      1.93s WALL (    2067 calls)
     cegterg:last :      3.65s CPU      3.71s WALL (    1380 calls)
     cdiaghg:chol :      0.24s CPU      0.25s WALL (    2131 calls)
     cdiaghg:inve :      0.05s CPU      0.05s WALL (    2131 calls)
     cdiaghg:para :      0.51s CPU      0.52s WALL (    4262 calls)
     h_psi        :     18.06s CPU     18.57s WALL (    2267 calls)
     g_psi        :      0.14s CPU      0.14s WALL (    2067 calls)

     Called by h_psi:
     h_psi:calbec :      0.56s CPU      0.57s WALL (    2267 calls)
     vloc_psi     :     17.00s CPU     17.48s WALL (    2267 calls)
     add_vuspsi   :      0.42s CPU      0.43s WALL (    2267 calls)

     General routines
     calbec       :      0.55s CPU      0.57s WALL (    2267 calls)
     fft          :      0.01s CPU      0.01s WALL (      10 calls)
     fftw         :     15.72s CPU     16.17s WALL (   55776 calls)
     davcio       :      0.01s CPU      0.01s WALL (     128 calls)

     Parallel routines
     fft_scatt_xy :      1.05s CPU      1.08s WALL (   55786 calls)
     fft_scatt_yz :      4.49s CPU      4.62s WALL (   55786 calls)

     PWSCF        :     31.01s CPU     31.90s WALL


   This run was terminated on:  19:23:17   1Oct2023            

=------------------------------------------------------------------------------=
   JOB DONE.
=------------------------------------------------------------------------------=
