
     Program PWSCF v.6.7MaX starts on  1Oct2023 at 19:24:23 

     This program is part of the open-source Quantum ESPRESSO suite
     for quantum simulation of materials; please cite
         "P. Giannozzi et al., J. Phys.:Condens. Matter 21 395502 (2009);
         "P. Giannozzi et al., J. Phys.:Condens. Matter 29 465901 (2017);
          URL http://www.quantum-espresso.org", 
     in publications or presentations arising from this work. More details at
     http://www.quantum-espresso.org/quote

     Parallel version (MPI), running on     4 processors

     MPI processes distributed on     1 nodes
     R & G space division:  proc/nbgrp/npool/nimage =       4
     Waiting for input...
     Reading input from standard input

     Current dimensions of program PWSCF are:
     Max number of different atomic species (ntypx) = 10
     Max number of k-points (npk) =  40000
     Max angular momentum in pseudopotentials (lmaxx) =  3

     Subspace diagonalization in iterative solution of the eigenvalue problem:
     one sub-group per band group will be used
     scalapack distributed-memory algorithm (size of sub-group:  2*  2 procs)


     Parallelization info
     --------------------
     sticks:   dense  smooth     PW     G-vecs:    dense   smooth      PW
     Min         214     214     63                 4221     4221     684
     Max         215     215     64                 4224     4224     688
     Sum         859     859    253                16889    16889    2741



     bravais-lattice index     =            2
     lattice parameter (alat)  =      10.2625  a.u.
     unit-cell volume          =     270.2088 (a.u.)^3
     number of atoms/cell      =            2
     number of atomic types    =            1
     number of electrons       =         8.00
     number of Kohn-Sham states=           20
     kinetic-energy cutoff     =      60.0000  Ry
     charge density cutoff     =     240.0000  Ry
     scf convergence threshold =      1.0E-08
     mixing beta               =       0.7000
     number of iterations used =            8  plain     mixing
     Exchange-correlation=  SLA  PW   PBE  PBE
                           (   1   4   3   4   0   0   0)

     celldm(1)=  10.262500  celldm(2)=   0.000000  celldm(3)=   0.000000
     celldm(4)=   0.000000  celldm(5)=   0.000000  celldm(6)=   0.000000

     crystal axes: (cart. coord. in units of alat)
               a(1) = (  -0.500000   0.000000   0.500000 )  
               a(2) = (   0.000000   0.500000   0.500000 )  
               a(3) = (  -0.500000   0.500000   0.000000 )  

     reciprocal axes: (cart. coord. in units 2 pi/alat)
               b(1) = ( -1.000000 -1.000000  1.000000 )  
               b(2) = (  1.000000  1.000000  1.000000 )  
               b(3) = ( -1.000000  1.000000 -1.000000 )  


     PseudoPot. # 1 for Si read from file:
     ../pseudo/Si.pbe-rrkj.UPF
     MD5 check sum: cf7ab5690cd9a85b22c4813f7e365554
     Pseudo is Norm-conserving, Zval =  4.0
     Generated by new atomic code, or converted to UPF format
     Using radial grid of  883 points,  3 beta functions with: 
                l(1) =   0
                l(2) =   0
                l(3) =   1

     atomic species   valence    mass     pseudopotential
        Si             4.00    28.08550     Si( 1.00)

     No symmetry found


                                    s                        frac. trans.

      isym =  1     identity                                     

 cryst.   s( 1) = (     1          0          0      )
                  (     0          1          0      )
                  (     0          0          1      )

 cart.    s( 1) = (  1.0000000  0.0000000  0.0000000 )
                  (  0.0000000  1.0000000  0.0000000 )
                  (  0.0000000  0.0000000  1.0000000 )


     point group C_1 (1)    
     there are  1 classes
     the character table:

       E    
A      1.00

     the symmetry operations in each class and the name of the first element:

     E        1
          identity                                               

   Cartesian axes

     site n.     atom                  positions (alat units)
         1           Si  tau(   1) = (   0.0000000   0.0000000   0.0000000  )
         2           Si  tau(   2) = (   0.2500000   0.2500000   0.2500000  )

   Crystallographic axes

     site n.     atom                  positions (cryst. coord.)
         1           Si  tau(   1) = (  0.0000000  0.0000000  0.0000000  )
         2           Si  tau(   2) = ( -0.2500000  0.7500000 -0.2500000  )

     number of k points=    64
                       cart. coord. in units 2pi/alat
        k(    1) = (  -0.1250000   0.1250000   0.1250000), wk =   0.0312500
        k(    2) = (  -0.3750000   0.3750000  -0.1250000), wk =   0.0312500
        k(    3) = (   0.3750000  -0.3750000   0.6250000), wk =   0.0312500
        k(    4) = (   0.1250000  -0.1250000   0.3750000), wk =   0.0312500
        k(    5) = (   0.1250000   0.3750000   0.3750000), wk =   0.0312500
        k(    6) = (  -0.1250000   0.6250000   0.1250000), wk =   0.0312500
        k(    7) = (   0.6250000  -0.1250000   0.8750000), wk =   0.0312500
        k(    8) = (   0.3750000   0.1250000   0.6250000), wk =   0.0312500
        k(    9) = (  -0.6250000  -0.3750000  -0.3750000), wk =   0.0312500
        k(   10) = (  -0.8750000  -0.1250000  -0.6250000), wk =   0.0312500
        k(   11) = (  -0.1250000  -0.8750000   0.1250000), wk =   0.0312500
        k(   12) = (  -0.3750000  -0.6250000  -0.1250000), wk =   0.0312500
        k(   13) = (  -0.3750000  -0.1250000  -0.1250000), wk =   0.0312500
        k(   14) = (  -0.6250000   0.1250000  -0.3750000), wk =   0.0312500
        k(   15) = (   0.1250000  -0.6250000   0.3750000), wk =   0.0312500
        k(   16) = (  -0.1250000  -0.3750000   0.1250000), wk =   0.0312500
        k(   17) = (  -0.3750000  -0.1250000   0.3750000), wk =   0.0312500
        k(   18) = (  -0.6250000   0.1250000   0.1250000), wk =   0.0312500
        k(   19) = (   0.1250000  -0.6250000   0.8750000), wk =   0.0312500
        k(   20) = (  -0.1250000  -0.3750000   0.6250000), wk =   0.0312500
        k(   21) = (  -0.1250000   0.1250000   0.6250000), wk =   0.0312500
        k(   22) = (  -0.3750000   0.3750000   0.3750000), wk =   0.0312500
        k(   23) = (   0.3750000  -0.3750000   1.1250000), wk =   0.0312500
        k(   24) = (   0.1250000  -0.1250000   0.8750000), wk =   0.0312500
        k(   25) = (  -0.8750000  -0.6250000  -0.1250000), wk =   0.0312500
        k(   26) = (  -1.1250000  -0.3750000  -0.3750000), wk =   0.0312500
        k(   27) = (  -0.3750000  -1.1250000   0.3750000), wk =   0.0312500
        k(   28) = (  -0.6250000  -0.8750000   0.1250000), wk =   0.0312500
        k(   29) = (  -0.6250000  -0.3750000   0.1250000), wk =   0.0312500
        k(   30) = (  -0.8750000  -0.1250000  -0.1250000), wk =   0.0312500
        k(   31) = (  -0.1250000  -0.8750000   0.6250000), wk =   0.0312500
        k(   32) = (  -0.3750000  -0.6250000   0.3750000), wk =   0.0312500
        k(   33) = (   0.3750000   0.6250000  -0.3750000), wk =   0.0312500
        k(   34) = (   0.1250000   0.8750000  -0.6250000), wk =   0.0312500
        k(   35) = (   0.8750000   0.1250000   0.1250000), wk =   0.0312500
        k(   36) = (   0.6250000   0.3750000  -0.1250000), wk =   0.0312500
        k(   37) = (   0.6250000   0.8750000  -0.1250000), wk =   0.0312500
        k(   38) = (   0.3750000   1.1250000  -0.3750000), wk =   0.0312500
        k(   39) = (   1.1250000   0.3750000   0.3750000), wk =   0.0312500
        k(   40) = (   0.8750000   0.6250000   0.1250000), wk =   0.0312500
        k(   41) = (  -0.1250000   0.1250000  -0.8750000), wk =   0.0312500
        k(   42) = (  -0.3750000   0.3750000  -1.1250000), wk =   0.0312500
        k(   43) = (   0.3750000  -0.3750000  -0.3750000), wk =   0.0312500
        k(   44) = (   0.1250000  -0.1250000  -0.6250000), wk =   0.0312500
        k(   45) = (   0.1250000   0.3750000  -0.6250000), wk =   0.0312500
        k(   46) = (  -0.1250000   0.6250000  -0.8750000), wk =   0.0312500
        k(   47) = (   0.6250000  -0.1250000  -0.1250000), wk =   0.0312500
        k(   48) = (   0.3750000   0.1250000  -0.3750000), wk =   0.0312500
        k(   49) = (   0.1250000   0.3750000  -0.1250000), wk =   0.0312500
        k(   50) = (  -0.1250000   0.6250000  -0.3750000), wk =   0.0312500
        k(   51) = (   0.6250000  -0.1250000   0.3750000), wk =   0.0312500
        k(   52) = (   0.3750000   0.1250000   0.1250000), wk =   0.0312500
        k(   53) = (   0.3750000   0.6250000   0.1250000), wk =   0.0312500
        k(   54) = (   0.1250000   0.8750000  -0.1250000), wk =   0.0312500
        k(   55) = (   0.8750000   0.1250000   0.6250000), wk =   0.0312500
        k(   56) = (   0.6250000   0.3750000   0.3750000), wk =   0.0312500
        k(   57) = (  -0.3750000  -0.1250000  -0.6250000), wk =   0.0312500
        k(   58) = (  -0.6250000   0.1250000  -0.8750000), wk =   0.0312500
        k(   59) = (   0.1250000  -0.6250000  -0.1250000), wk =   0.0312500
        k(   60) = (  -0.1250000  -0.3750000  -0.3750000), wk =   0.0312500
        k(   61) = (  -0.1250000   0.1250000  -0.3750000), wk =   0.0312500
        k(   62) = (  -0.3750000   0.3750000  -0.6250000), wk =   0.0312500
        k(   63) = (   0.3750000  -0.3750000   0.1250000), wk =   0.0312500
        k(   64) = (   0.1250000  -0.1250000  -0.1250000), wk =   0.0312500

                       cryst. coord.
        k(    1) = (   0.1250000   0.1250000   0.1250000), wk =   0.0312500
        k(    2) = (   0.1250000   0.1250000   0.3750000), wk =   0.0312500
        k(    3) = (   0.1250000   0.1250000  -0.3750000), wk =   0.0312500
        k(    4) = (   0.1250000   0.1250000  -0.1250000), wk =   0.0312500
        k(    5) = (   0.1250000   0.3750000   0.1250000), wk =   0.0312500
        k(    6) = (   0.1250000   0.3750000   0.3750000), wk =   0.0312500
        k(    7) = (   0.1250000   0.3750000  -0.3750000), wk =   0.0312500
        k(    8) = (   0.1250000   0.3750000  -0.1250000), wk =   0.0312500
        k(    9) = (   0.1250000  -0.3750000   0.1250000), wk =   0.0312500
        k(   10) = (   0.1250000  -0.3750000   0.3750000), wk =   0.0312500
        k(   11) = (   0.1250000  -0.3750000  -0.3750000), wk =   0.0312500
        k(   12) = (   0.1250000  -0.3750000  -0.1250000), wk =   0.0312500
        k(   13) = (   0.1250000  -0.1250000   0.1250000), wk =   0.0312500
        k(   14) = (   0.1250000  -0.1250000   0.3750000), wk =   0.0312500
        k(   15) = (   0.1250000  -0.1250000  -0.3750000), wk =   0.0312500
        k(   16) = (   0.1250000  -0.1250000  -0.1250000), wk =   0.0312500
        k(   17) = (   0.3750000   0.1250000   0.1250000), wk =   0.0312500
        k(   18) = (   0.3750000   0.1250000   0.3750000), wk =   0.0312500
        k(   19) = (   0.3750000   0.1250000  -0.3750000), wk =   0.0312500
        k(   20) = (   0.3750000   0.1250000  -0.1250000), wk =   0.0312500
        k(   21) = (   0.3750000   0.3750000   0.1250000), wk =   0.0312500
        k(   22) = (   0.3750000   0.3750000   0.3750000), wk =   0.0312500
        k(   23) = (   0.3750000   0.3750000  -0.3750000), wk =   0.0312500
        k(   24) = (   0.3750000   0.3750000  -0.1250000), wk =   0.0312500
        k(   25) = (   0.3750000  -0.3750000   0.1250000), wk =   0.0312500
        k(   26) = (   0.3750000  -0.3750000   0.3750000), wk =   0.0312500
        k(   27) = (   0.3750000  -0.3750000  -0.3750000), wk =   0.0312500
        k(   28) = (   0.3750000  -0.3750000  -0.1250000), wk =   0.0312500
        k(   29) = (   0.3750000  -0.1250000   0.1250000), wk =   0.0312500
        k(   30) = (   0.3750000  -0.1250000   0.3750000), wk =   0.0312500
        k(   31) = (   0.3750000  -0.1250000  -0.3750000), wk =   0.0312500
        k(   32) = (   0.3750000  -0.1250000  -0.1250000), wk =   0.0312500
        k(   33) = (  -0.3750000   0.1250000   0.1250000), wk =   0.0312500
        k(   34) = (  -0.3750000   0.1250000   0.3750000), wk =   0.0312500
        k(   35) = (  -0.3750000   0.1250000  -0.3750000), wk =   0.0312500
        k(   36) = (  -0.3750000   0.1250000  -0.1250000), wk =   0.0312500
        k(   37) = (  -0.3750000   0.3750000   0.1250000), wk =   0.0312500
        k(   38) = (  -0.3750000   0.3750000   0.3750000), wk =   0.0312500
        k(   39) = (  -0.3750000   0.3750000  -0.3750000), wk =   0.0312500
        k(   40) = (  -0.3750000   0.3750000  -0.1250000), wk =   0.0312500
        k(   41) = (  -0.3750000  -0.3750000   0.1250000), wk =   0.0312500
        k(   42) = (  -0.3750000  -0.3750000   0.3750000), wk =   0.0312500
        k(   43) = (  -0.3750000  -0.3750000  -0.3750000), wk =   0.0312500
        k(   44) = (  -0.3750000  -0.3750000  -0.1250000), wk =   0.0312500
        k(   45) = (  -0.3750000  -0.1250000   0.1250000), wk =   0.0312500
        k(   46) = (  -0.3750000  -0.1250000   0.3750000), wk =   0.0312500
        k(   47) = (  -0.3750000  -0.1250000  -0.3750000), wk =   0.0312500
        k(   48) = (  -0.3750000  -0.1250000  -0.1250000), wk =   0.0312500
        k(   49) = (  -0.1250000   0.1250000   0.1250000), wk =   0.0312500
        k(   50) = (  -0.1250000   0.1250000   0.3750000), wk =   0.0312500
        k(   51) = (  -0.1250000   0.1250000  -0.3750000), wk =   0.0312500
        k(   52) = (  -0.1250000   0.1250000  -0.1250000), wk =   0.0312500
        k(   53) = (  -0.1250000   0.3750000   0.1250000), wk =   0.0312500
        k(   54) = (  -0.1250000   0.3750000   0.3750000), wk =   0.0312500
        k(   55) = (  -0.1250000   0.3750000  -0.3750000), wk =   0.0312500
        k(   56) = (  -0.1250000   0.3750000  -0.1250000), wk =   0.0312500
        k(   57) = (  -0.1250000  -0.3750000   0.1250000), wk =   0.0312500
        k(   58) = (  -0.1250000  -0.3750000   0.3750000), wk =   0.0312500
        k(   59) = (  -0.1250000  -0.3750000  -0.3750000), wk =   0.0312500
        k(   60) = (  -0.1250000  -0.3750000  -0.1250000), wk =   0.0312500
        k(   61) = (  -0.1250000  -0.1250000   0.1250000), wk =   0.0312500
        k(   62) = (  -0.1250000  -0.1250000   0.3750000), wk =   0.0312500
        k(   63) = (  -0.1250000  -0.1250000  -0.3750000), wk =   0.0312500
        k(   64) = (  -0.1250000  -0.1250000  -0.1250000), wk =   0.0312500

     Dense  grid:    16889 G-vectors     FFT dimensions: (  36,  36,  36)

     Dynamical RAM for                 wfc:       0.16 MB

     Dynamical RAM for     wfc (w. buffer):      10.51 MB

     Dynamical RAM for           str. fact:       0.06 MB

     Dynamical RAM for           local pot:       0.00 MB

     Dynamical RAM for          nlocal pot:       0.08 MB

     Dynamical RAM for                qrad:       0.21 MB

     Dynamical RAM for          rho,v,vnew:       0.46 MB

     Dynamical RAM for               rhoin:       0.15 MB

     Dynamical RAM for            rho*nmix:       1.03 MB

     Dynamical RAM for           G-vectors:       0.27 MB

     Dynamical RAM for          h,s,v(r/c):       0.02 MB

     Dynamical RAM for          <psi|beta>:       0.00 MB

     Dynamical RAM for                 psi:       0.32 MB

     Dynamical RAM for                hpsi:       0.32 MB

     Dynamical RAM for      wfcinit/wfcrot:       0.33 MB

     Estimated static dynamical RAM per process >      13.36 MB

     Estimated max dynamical RAM per process >      14.03 MB

     Estimated total dynamical RAM >      56.13 MB

     Initial potential from superposition of free atoms

     starting charge    7.99889, renormalised to    8.00000
     Starting wfcs are    8 randomized atomic wfcs +   12 random wfcs

     total cpu time spent up to now is        1.3 secs

     Self-consistent Calculation

     iteration #  1     ecut=    60.00 Ry     beta= 0.70
     Davidson diagonalization with overlap
     ethr =  1.00E-02,  avg # of iterations =  6.9

     Threshold (ethr) on eigenvalues was too large:
     Diagonalizing with lowered threshold

     Davidson diagonalization with overlap
     ethr =  7.43E-04,  avg # of iterations =  1.1

     total cpu time spent up to now is       13.2 secs

     total energy              =     -15.73846814 Ry
     estimated scf accuracy    <       0.05943209 Ry

     iteration #  2     ecut=    60.00 Ry     beta= 0.70
     Davidson diagonalization with overlap
     ethr =  7.43E-04,  avg # of iterations =  1.0

     total cpu time spent up to now is       16.1 secs

     total energy              =     -15.74115985 Ry
     estimated scf accuracy    <       0.00216919 Ry

     iteration #  3     ecut=    60.00 Ry     beta= 0.70
     Davidson diagonalization with overlap
     ethr =  2.71E-05,  avg # of iterations =  4.6

     total cpu time spent up to now is       19.7 secs

     total energy              =     -15.74122173 Ry
     estimated scf accuracy    <       0.00005863 Ry

     iteration #  4     ecut=    60.00 Ry     beta= 0.70
     Davidson diagonalization with overlap
     ethr =  7.33E-07,  avg # of iterations =  4.2

     total cpu time spent up to now is       23.7 secs

     total energy              =     -15.74122421 Ry
     estimated scf accuracy    <       0.00000009 Ry

     iteration #  5     ecut=    60.00 Ry     beta= 0.70
     Davidson diagonalization with overlap
     ethr =  1.18E-09,  avg # of iterations =  2.2

     total cpu time spent up to now is       27.0 secs

     End of self-consistent calculation

          k =-0.1250 0.1250 0.1250 (  2112 PWs)   bands (ev):

    -5.4693   4.6534   5.9390   5.9390   8.7572   9.2255   9.2255  11.0045
    13.4768  13.4768  15.0191  16.9475  18.6655  18.6655  22.8961  27.4057
    27.4057  27.7219  30.3243  30.3243

     occupation numbers 
     1.0000   1.0000   1.0000   1.0000   0.0000   0.0000   0.0000   0.0000
     0.0000   0.0000   0.0000   0.0000   0.0000   0.0000   0.0000   0.0000
     0.0000   0.0000   0.0000   0.0000

          k =-0.3750 0.3750-0.1250 (  2117 PWs)   bands (ev):

    -4.4233   1.6397   3.9317   5.4549   8.9854   9.9194  10.0948  12.5498
    12.7068  16.1046  16.3269  18.6875  20.2487  21.7013  22.6647  24.3250
    25.1166  28.0441  28.3279  29.2968

     occupation numbers 
     1.0000   1.0000   1.0000   1.0000   0.0000   0.0000   0.0000   0.0000
     0.0000   0.0000   0.0000   0.0000   0.0000   0.0000   0.0000   0.0000
     0.0000   0.0000   0.0000   0.0000

          k = 0.3750-0.3750 0.6250 (  2115 PWs)   bands (ev):

    -3.2517  -0.4853   3.9676   4.6691   8.4547   9.7642  10.3412  13.6138
    15.2376  16.7185  17.8011  17.8957  18.7862  21.3046  24.6074  25.9512
    26.6112  27.4119  28.3052  28.6549

     occupation numbers 
     1.0000   1.0000   1.0000   1.0000   0.0000   0.0000   0.0000   0.0000
     0.0000   0.0000   0.0000   0.0000   0.0000   0.0000   0.0000   0.0000
     0.0000   0.0000   0.0000   0.0000

          k = 0.1250-0.1250 0.3750 (  2106 PWs)   bands (ev):

    -4.9319   3.0343   4.9128   5.0022   8.3916   9.9713  10.7053  10.9940
    13.7650  14.4251  16.2846  17.8540  19.3925  20.6664  23.8671  24.3687
    25.5475  27.8994  27.9163  29.4030

     occupation numbers 
     1.0000   1.0000   1.0000   1.0000   0.0000   0.0000   0.0000   0.0000
     0.0000   0.0000   0.0000   0.0000   0.0000   0.0000   0.0000   0.0000
     0.0000   0.0000   0.0000   0.0000

          k = 0.1250 0.3750 0.3750 (  2117 PWs)   bands (ev):

    -4.4233   1.6397   3.9317   5.4549   8.9854   9.9194  10.0948  12.5498
    12.7068  16.1046  16.3269  18.6875  20.2487  21.7013  22.6647  24.3250
    25.1166  28.0441  28.3279  29.2968

     occupation numbers 
     1.0000   1.0000   1.0000   1.0000   0.0000   0.0000   0.0000   0.0000
     0.0000   0.0000   0.0000   0.0000   0.0000   0.0000   0.0000   0.0000
     0.0000   0.0000   0.0000   0.0000

          k =-0.1250 0.6250 0.1250 (  2114 PWs)   bands (ev):

    -3.8826   1.3386   3.5662   4.0258   7.6020   9.1445  12.2380  12.5003
    16.2237  16.4449  17.9156  19.4609  20.0220  21.0977  22.1530  23.3823
    24.6851  26.1877  28.2370  30.5040

     occupation numbers 
     1.0000   1.0000   1.0000   1.0000   0.0000   0.0000   0.0000   0.0000
     0.0000   0.0000   0.0000   0.0000   0.0000   0.0000   0.0000   0.0000
     0.0000   0.0000   0.0000   0.0000

          k = 0.6250-0.1250 0.8750 (  2132 PWs)   bands (ev):

    -2.2044  -0.6508   2.1801   3.2771   8.6386  10.5201  11.5219  13.6850
    14.6416  17.3214  18.4769  20.5823  21.6323  22.2613  23.8115  24.6425
    25.0142  25.7054  27.3884  28.0716

     occupation numbers 
     1.0000   1.0000   1.0000   1.0000   0.0000   0.0000   0.0000   0.0000
     0.0000   0.0000   0.0000   0.0000   0.0000   0.0000   0.0000   0.0000
     0.0000   0.0000   0.0000   0.0000

          k = 0.3750 0.1250 0.6250 (  2117 PWs)   bands (ev):

    -3.4548   0.4286   2.9235   4.3079   9.1268   9.8043  11.2650  12.1710
    15.2667  15.9735  18.2576  19.1845  20.4921  21.4013  23.5434  24.5168
    25.3136  27.2912  28.1830  29.1130

     occupation numbers 
     1.0000   1.0000   1.0000   1.0000   0.0000   0.0000   0.0000   0.0000
     0.0000   0.0000   0.0000   0.0000   0.0000   0.0000   0.0000   0.0000
     0.0000   0.0000   0.0000   0.0000

          k =-0.6250-0.3750-0.3750 (  2115 PWs)   bands (ev):

    -3.2517  -0.4853   3.9676   4.6691   8.4547   9.7642  10.3412  13.6138
    15.2376  16.7185  17.8011  17.8957  18.7862  21.3046  24.6074  25.9512
    26.6111  27.4119  28.3052  28.6549

     occupation numbers 
     1.0000   1.0000   1.0000   1.0000   0.0000   0.0000   0.0000   0.0000
     0.0000   0.0000   0.0000   0.0000   0.0000   0.0000   0.0000   0.0000
     0.0000   0.0000   0.0000   0.0000

          k =-0.8750-0.1250-0.6250 (  2132 PWs)   bands (ev):

    -2.2044  -0.6508   2.1801   3.2771   8.6386  10.5201  11.5219  13.6850
    14.6416  17.3214  18.4769  20.5823  21.6323  22.2613  23.8115  24.6425
    25.0142  25.7054  27.3884  28.0716

     occupation numbers 
     1.0000   1.0000   1.0000   1.0000   0.0000   0.0000   0.0000   0.0000
     0.0000   0.0000   0.0000   0.0000   0.0000   0.0000   0.0000   0.0000
     0.0000   0.0000   0.0000   0.0000

          k =-0.1250-0.8750 0.1250 (  2127 PWs)   bands (ev):

    -2.3829  -0.5478   2.8042   3.5518   7.1463   8.2183  14.5052  14.5973
    17.0019  17.0429  18.5585  19.1328  21.2025  21.2071  22.2077  24.9672
    25.1057  25.7228  27.0687  28.5906

     occupation numbers 
     1.0000   1.0000   1.0000   1.0000   0.0000   0.0000   0.0000   0.0000
     0.0000   0.0000   0.0000   0.0000   0.0000   0.0000   0.0000   0.0000
     0.0000   0.0000   0.0000   0.0000

          k =-0.3750-0.6250-0.1250 (  2117 PWs)   bands (ev):

    -3.4548   0.4286   2.9235   4.3079   9.1268   9.8043  11.2650  12.1710
    15.2667  15.9735  18.2576  19.1845  20.4921  21.4013  23.5434  24.5168
    25.3137  27.2913  28.1830  29.1130

     occupation numbers 
     1.0000   1.0000   1.0000   1.0000   0.0000   0.0000   0.0000   0.0000
     0.0000   0.0000   0.0000   0.0000   0.0000   0.0000   0.0000   0.0000
     0.0000   0.0000   0.0000   0.0000

          k =-0.3750-0.1250-0.1250 (  2106 PWs)   bands (ev):

    -4.9319   3.0343   4.9128   5.0022   8.3916   9.9713  10.7053  10.9940
    13.7650  14.4251  16.2846  17.8540  19.3925  20.6664  23.8671  24.3687
    25.5475  27.8993  27.9163  29.4030

     occupation numbers 
     1.0000   1.0000   1.0000   1.0000   0.0000   0.0000   0.0000   0.0000
     0.0000   0.0000   0.0000   0.0000   0.0000   0.0000   0.0000   0.0000
     0.0000   0.0000   0.0000   0.0000

          k =-0.6250 0.1250-0.3750 (  2117 PWs)   bands (ev):

    -3.4548   0.4286   2.9235   4.3079   9.1268   9.8043  11.2650  12.1710
    15.2667  15.9735  18.2577  19.1845  20.4921  21.4013  23.5434  24.5168
    25.3136  27.2913  28.1830  29.1129

     occupation numbers 
     1.0000   1.0000   1.0000   1.0000   0.0000   0.0000   0.0000   0.0000
     0.0000   0.0000   0.0000   0.0000   0.0000   0.0000   0.0000   0.0000
     0.0000   0.0000   0.0000   0.0000

          k = 0.1250-0.6250 0.3750 (  2117 PWs)   bands (ev):

    -3.4548   0.4286   2.9235   4.3079   9.1268   9.8043  11.2650  12.1710
    15.2667  15.9735  18.2576  19.1845  20.4921  21.4013  23.5434  24.5168
    25.3136  27.2913  28.1831  29.1130

     occupation numbers 
     1.0000   1.0000   1.0000   1.0000   0.0000   0.0000   0.0000   0.0000
     0.0000   0.0000   0.0000   0.0000   0.0000   0.0000   0.0000   0.0000
     0.0000   0.0000   0.0000   0.0000

          k =-0.1250-0.3750 0.1250 (  2106 PWs)   bands (ev):

    -4.9319   3.0343   4.9128   5.0022   8.3916   9.9713  10.7053  10.9940
    13.7650  14.4251  16.2846  17.8540  19.3925  20.6664  23.8671  24.3687
    25.5475  27.8993  27.9163  29.4030

     occupation numbers 
     1.0000   1.0000   1.0000   1.0000   0.0000   0.0000   0.0000   0.0000
     0.0000   0.0000   0.0000   0.0000   0.0000   0.0000   0.0000   0.0000
     0.0000   0.0000   0.0000   0.0000

          k =-0.3750-0.1250 0.3750 (  2117 PWs)   bands (ev):

    -4.4233   1.6397   3.9317   5.4549   8.9854   9.9194  10.0948  12.5498
    12.7068  16.1046  16.3269  18.6875  20.2487  21.7013  22.6647  24.3250
    25.1165  28.0441  28.3279  29.2968

     occupation numbers 
     1.0000   1.0000   1.0000   1.0000   0.0000   0.0000   0.0000   0.0000
     0.0000   0.0000   0.0000   0.0000   0.0000   0.0000   0.0000   0.0000
     0.0000   0.0000   0.0000   0.0000

          k =-0.6250 0.1250 0.1250 (  2114 PWs)   bands (ev):

    -3.8826   1.3386   3.5662   4.0258   7.6020   9.1445  12.2380  12.5003
    16.2237  16.4449  17.9156  19.4609  20.0220  21.0977  22.1530  23.3823
    24.6851  26.1877  28.2370  30.5039

     occupation numbers 
     1.0000   1.0000   1.0000   1.0000   0.0000   0.0000   0.0000   0.0000
     0.0000   0.0000   0.0000   0.0000   0.0000   0.0000   0.0000   0.0000
     0.0000   0.0000   0.0000   0.0000

          k = 0.1250-0.6250 0.8750 (  2132 PWs)   bands (ev):

    -2.2044  -0.6508   2.1801   3.2771   8.6386  10.5201  11.5219  13.6850
    14.6416  17.3214  18.4769  20.5823  21.6323  22.2613  23.8115  24.6425
    25.0142  25.7054  27.3884  28.0716

     occupation numbers 
     1.0000   1.0000   1.0000   1.0000   0.0000   0.0000   0.0000   0.0000
     0.0000   0.0000   0.0000   0.0000   0.0000   0.0000   0.0000   0.0000
     0.0000   0.0000   0.0000   0.0000

          k =-0.1250-0.3750 0.6250 (  2117 PWs)   bands (ev):

    -3.4548   0.4286   2.9235   4.3079   9.1268   9.8043  11.2650  12.1710
    15.2667  15.9735  18.2577  19.1845  20.4921  21.4013  23.5434  24.5168
    25.3136  27.2913  28.1830  29.1130

     occupation numbers 
     1.0000   1.0000   1.0000   1.0000   0.0000   0.0000   0.0000   0.0000
     0.0000   0.0000   0.0000   0.0000   0.0000   0.0000   0.0000   0.0000
     0.0000   0.0000   0.0000   0.0000

          k =-0.1250 0.1250 0.6250 (  2114 PWs)   bands (ev):

    -3.8826   1.3386   3.5662   4.0258   7.6020   9.1445  12.2380  12.5003
    16.2237  16.4449  17.9156  19.4609  20.0220  21.0977  22.1530  23.3823
    24.6851  26.1877  28.2370  30.5039

     occupation numbers 
     1.0000   1.0000   1.0000   1.0000   0.0000   0.0000   0.0000   0.0000
     0.0000   0.0000   0.0000   0.0000   0.0000   0.0000   0.0000   0.0000
     0.0000   0.0000   0.0000   0.0000

          k =-0.3750 0.3750 0.3750 (  2114 PWs)   bands (ev):

    -3.9804   0.3213   5.1448   5.1448   7.9421   9.6855   9.6855  14.1343
    14.8223  14.8223  15.9594  20.0135  20.0135  20.3477  22.9510  24.8183
    24.8183  29.2619  30.2414  30.3328

     occupation numbers 
     1.0000   1.0000   1.0000   1.0000   0.0000   0.0000   0.0000   0.0000
     0.0000   0.0000   0.0000   0.0000   0.0000   0.0000   0.0000   0.0000
     0.0000   0.0000   0.0000   0.0000

          k = 0.3750-0.3750 1.1250 (  2125 PWs)   bands (ev):

    -2.7516  -0.3609   2.2485   4.3467   8.0965  11.7060  11.7154  13.2050
    14.2190  14.2672  18.8438  21.0908  21.3929  22.2879  22.7315  24.6849
    25.7281  26.2767  28.1570  28.4002

     occupation numbers 
     1.0000   1.0000   1.0000   1.0000   0.0000   0.0000   0.0000   0.0000
     0.0000   0.0000   0.0000   0.0000   0.0000   0.0000   0.0000   0.0000
     0.0000   0.0000   0.0000   0.0000

          k = 0.1250-0.1250 0.8750 (  2127 PWs)   bands (ev):

    -2.3829  -0.5478   2.8042   3.5518   7.1463   8.2183  14.5052  14.5973
    17.0019  17.0429  18.5585  19.1328  21.2025  21.2071  22.2077  24.9672
    25.1057  25.7228  27.0687  28.5905

     occupation numbers 
     1.0000   1.0000   1.0000   1.0000   0.0000   0.0000   0.0000   0.0000
     0.0000   0.0000   0.0000   0.0000   0.0000   0.0000   0.0000   0.0000
     0.0000   0.0000   0.0000   0.0000

          k =-0.8750-0.6250-0.1250 (  2132 PWs)   bands (ev):

    -2.2044  -0.6508   2.1801   3.2771   8.6386  10.5201  11.5219  13.6850
    14.6416  17.3214  18.4770  20.5823  21.6323  22.2613  23.8115  24.6425
    25.0142  25.7054  27.3884  28.0716

     occupation numbers 
     1.0000   1.0000   1.0000   1.0000   0.0000   0.0000   0.0000   0.0000
     0.0000   0.0000   0.0000   0.0000   0.0000   0.0000   0.0000   0.0000
     0.0000   0.0000   0.0000   0.0000

          k =-1.1250-0.3750-0.3750 (  2125 PWs)   bands (ev):

    -2.7516  -0.3609   2.2485   4.3467   8.0965  11.7060  11.7154  13.2050
    14.2190  14.2672  18.8438  21.0908  21.3929  22.2879  22.7315  24.6849
    25.7281  26.2767  28.1570  28.4002

     occupation numbers 
     1.0000   1.0000   1.0000   1.0000   0.0000   0.0000   0.0000   0.0000
     0.0000   0.0000   0.0000   0.0000   0.0000   0.0000   0.0000   0.0000
     0.0000   0.0000   0.0000   0.0000

          k =-0.3750-1.1250 0.3750 (  2125 PWs)   bands (ev):

    -2.7516  -0.3609   2.2485   4.3467   8.0965  11.7059  11.7154  13.2050
    14.2190  14.2672  18.8438  21.0908  21.3929  22.2879  22.7315  24.6849
    25.7281  26.2767  28.1570  28.4002

     occupation numbers 
     1.0000   1.0000   1.0000   1.0000   0.0000   0.0000   0.0000   0.0000
     0.0000   0.0000   0.0000   0.0000   0.0000   0.0000   0.0000   0.0000
     0.0000   0.0000   0.0000   0.0000

          k =-0.6250-0.8750 0.1250 (  2132 PWs)   bands (ev):

    -2.2044  -0.6508   2.1801   3.2771   8.6386  10.5201  11.5219  13.6850
    14.6416  17.3214  18.4769  20.5823  21.6323  22.2613  23.8115  24.6425
    25.0142  25.7054  27.3884  28.0716

     occupation numbers 
     1.0000   1.0000   1.0000   1.0000   0.0000   0.0000   0.0000   0.0000
     0.0000   0.0000   0.0000   0.0000   0.0000   0.0000   0.0000   0.0000
     0.0000   0.0000   0.0000   0.0000

          k =-0.6250-0.3750 0.1250 (  2117 PWs)   bands (ev):

    -3.4548   0.4286   2.9235   4.3079   9.1268   9.8043  11.2650  12.1710
    15.2667  15.9735  18.2577  19.1845  20.4921  21.4013  23.5434  24.5168
    25.3136  27.2912  28.1830  29.1130

     occupation numbers 
     1.0000   1.0000   1.0000   1.0000   0.0000   0.0000   0.0000   0.0000
     0.0000   0.0000   0.0000   0.0000   0.0000   0.0000   0.0000   0.0000
     0.0000   0.0000   0.0000   0.0000

          k =-0.8750-0.1250-0.1250 (  2127 PWs)   bands (ev):

    -2.3829  -0.5478   2.8042   3.5518   7.1463   8.2183  14.5052  14.5973
    17.0019  17.0429  18.5585  19.1328  21.2025  21.2071  22.2077  24.9672
    25.1057  25.7228  27.0687  28.5906

     occupation numbers 
     1.0000   1.0000   1.0000   1.0000   0.0000   0.0000   0.0000   0.0000
     0.0000   0.0000   0.0000   0.0000   0.0000   0.0000   0.0000   0.0000
     0.0000   0.0000   0.0000   0.0000

          k =-0.1250-0.8750 0.6250 (  2132 PWs)   bands (ev):

    -2.2044  -0.6508   2.1801   3.2771   8.6386  10.5201  11.5219  13.6850
    14.6416  17.3214  18.4769  20.5823  21.6323  22.2613  23.8115  24.6425
    25.0142  25.7054  27.3884  28.0716

     occupation numbers 
     1.0000   1.0000   1.0000   1.0000   0.0000   0.0000   0.0000   0.0000
     0.0000   0.0000   0.0000   0.0000   0.0000   0.0000   0.0000   0.0000
     0.0000   0.0000   0.0000   0.0000

          k =-0.3750-0.6250 0.3750 (  2115 PWs)   bands (ev):

    -3.2517  -0.4853   3.9676   4.6691   8.4547   9.7642  10.3412  13.6138
    15.2376  16.7185  17.8011  17.8957  18.7862  21.3046  24.6074  25.9511
    26.6111  27.4119  28.3052  28.6549

     occupation numbers 
     1.0000   1.0000   1.0000   1.0000   0.0000   0.0000   0.0000   0.0000
     0.0000   0.0000   0.0000   0.0000   0.0000   0.0000   0.0000   0.0000
     0.0000   0.0000   0.0000   0.0000

          k = 0.3750 0.6250-0.3750 (  2115 PWs)   bands (ev):

    -3.2517  -0.4853   3.9676   4.6691   8.4547   9.7642  10.3412  13.6138
    15.2376  16.7185  17.8011  17.8957  18.7862  21.3046  24.6074  25.9511
    26.6111  27.4119  28.3052  28.6549

     occupation numbers 
     1.0000   1.0000   1.0000   1.0000   0.0000   0.0000   0.0000   0.0000
     0.0000   0.0000   0.0000   0.0000   0.0000   0.0000   0.0000   0.0000
     0.0000   0.0000   0.0000   0.0000

          k = 0.1250 0.8750-0.6250 (  2132 PWs)   bands (ev):

    -2.2044  -0.6508   2.1801   3.2771   8.6386  10.5201  11.5219  13.6850
    14.6416  17.3214  18.4769  20.5823  21.6323  22.2613  23.8115  24.6425
    25.0142  25.7054  27.3884  28.0716

     occupation numbers 
     1.0000   1.0000   1.0000   1.0000   0.0000   0.0000   0.0000   0.0000
     0.0000   0.0000   0.0000   0.0000   0.0000   0.0000   0.0000   0.0000
     0.0000   0.0000   0.0000   0.0000

          k = 0.8750 0.1250 0.1250 (  2127 PWs)   bands (ev):

    -2.3829  -0.5478   2.8042   3.5518   7.1463   8.2183  14.5052  14.5973
    17.0019  17.0429  18.5585  19.1328  21.2025  21.2071  22.2077  24.9672
    25.1057  25.7228  27.0687  28.5907

     occupation numbers 
     1.0000   1.0000   1.0000   1.0000   0.0000   0.0000   0.0000   0.0000
     0.0000   0.0000   0.0000   0.0000   0.0000   0.0000   0.0000   0.0000
     0.0000   0.0000   0.0000   0.0000

          k = 0.6250 0.3750-0.1250 (  2117 PWs)   bands (ev):

    -3.4548   0.4286   2.9235   4.3079   9.1268   9.8043  11.2650  12.1710
    15.2667  15.9735  18.2577  19.1845  20.4921  21.4013  23.5434  24.5168
    25.3136  27.2913  28.1831  29.1130

     occupation numbers 
     1.0000   1.0000   1.0000   1.0000   0.0000   0.0000   0.0000   0.0000
     0.0000   0.0000   0.0000   0.0000   0.0000   0.0000   0.0000   0.0000
     0.0000   0.0000   0.0000   0.0000

          k = 0.6250 0.8750-0.1250 (  2132 PWs)   bands (ev):

    -2.2044  -0.6508   2.1801   3.2771   8.6386  10.5201  11.5219  13.6850
    14.6416  17.3214  18.4769  20.5823  21.6323  22.2613  23.8115  24.6425
    25.0142  25.7054  27.3884  28.0716

     occupation numbers 
     1.0000   1.0000   1.0000   1.0000   0.0000   0.0000   0.0000   0.0000
     0.0000   0.0000   0.0000   0.0000   0.0000   0.0000   0.0000   0.0000
     0.0000   0.0000   0.0000   0.0000

          k = 0.3750 1.1250-0.3750 (  2125 PWs)   bands (ev):

    -2.7516  -0.3609   2.2485   4.3467   8.0965  11.7059  11.7154  13.2050
    14.2190  14.2672  18.8438  21.0908  21.3929  22.2879  22.7315  24.6849
    25.7281  26.2767  28.1570  28.4002

     occupation numbers 
     1.0000   1.0000   1.0000   1.0000   0.0000   0.0000   0.0000   0.0000
     0.0000   0.0000   0.0000   0.0000   0.0000   0.0000   0.0000   0.0000
     0.0000   0.0000   0.0000   0.0000

          k = 1.1250 0.3750 0.3750 (  2125 PWs)   bands (ev):

    -2.7516  -0.3609   2.2485   4.3467   8.0965  11.7060  11.7154  13.2050
    14.2190  14.2672  18.8438  21.0908  21.3929  22.2879  22.7315  24.6849
    25.7281  26.2767  28.1570  28.4002

     occupation numbers 
     1.0000   1.0000   1.0000   1.0000   0.0000   0.0000   0.0000   0.0000
     0.0000   0.0000   0.0000   0.0000   0.0000   0.0000   0.0000   0.0000
     0.0000   0.0000   0.0000   0.0000

          k = 0.8750 0.6250 0.1250 (  2132 PWs)   bands (ev):

    -2.2044  -0.6508   2.1801   3.2771   8.6386  10.5201  11.5219  13.6850
    14.6416  17.3214  18.4769  20.5823  21.6323  22.2613  23.8115  24.6425
    25.0142  25.7054  27.3884  28.0716

     occupation numbers 
     1.0000   1.0000   1.0000   1.0000   0.0000   0.0000   0.0000   0.0000
     0.0000   0.0000   0.0000   0.0000   0.0000   0.0000   0.0000   0.0000
     0.0000   0.0000   0.0000   0.0000

          k =-0.1250 0.1250-0.8750 (  2127 PWs)   bands (ev):

    -2.3829  -0.5478   2.8042   3.5518   7.1463   8.2183  14.5052  14.5973
    17.0019  17.0429  18.5585  19.1328  21.2025  21.2071  22.2077  24.9672
    25.1057  25.7228  27.0687  28.5905

     occupation numbers 
     1.0000   1.0000   1.0000   1.0000   0.0000   0.0000   0.0000   0.0000
     0.0000   0.0000   0.0000   0.0000   0.0000   0.0000   0.0000   0.0000
     0.0000   0.0000   0.0000   0.0000

          k =-0.3750 0.3750-1.1250 (  2125 PWs)   bands (ev):

    -2.7516  -0.3609   2.2485   4.3467   8.0965  11.7060  11.7154  13.2050
    14.2190  14.2672  18.8438  21.0908  21.3929  22.2879  22.7315  24.6849
    25.7281  26.2767  28.1570  28.4002

     occupation numbers 
     1.0000   1.0000   1.0000   1.0000   0.0000   0.0000   0.0000   0.0000
     0.0000   0.0000   0.0000   0.0000   0.0000   0.0000   0.0000   0.0000
     0.0000   0.0000   0.0000   0.0000

          k = 0.3750-0.3750-0.3750 (  2114 PWs)   bands (ev):

    -3.9804   0.3213   5.1448   5.1448   7.9421   9.6855   9.6855  14.1343
    14.8223  14.8223  15.9594  20.0135  20.0135  20.3477  22.9510  24.8183
    24.8183  29.2618  30.2366  30.3329

     occupation numbers 
     1.0000   1.0000   1.0000   1.0000   0.0000   0.0000   0.0000   0.0000
     0.0000   0.0000   0.0000   0.0000   0.0000   0.0000   0.0000   0.0000
     0.0000   0.0000   0.0000   0.0000

          k = 0.1250-0.1250-0.6250 (  2114 PWs)   bands (ev):

    -3.8826   1.3386   3.5662   4.0258   7.6020   9.1445  12.2380  12.5003
    16.2237  16.4449  17.9156  19.4609  20.0220  21.0977  22.1530  23.3823
    24.6851  26.1877  28.2371  30.5039

     occupation numbers 
     1.0000   1.0000   1.0000   1.0000   0.0000   0.0000   0.0000   0.0000
     0.0000   0.0000   0.0000   0.0000   0.0000   0.0000   0.0000   0.0000
     0.0000   0.0000   0.0000   0.0000

          k = 0.1250 0.3750-0.6250 (  2117 PWs)   bands (ev):

    -3.4548   0.4286   2.9235   4.3079   9.1268   9.8043  11.2650  12.1710
    15.2667  15.9735  18.2577  19.1845  20.4921  21.4013  23.5434  24.5168
    25.3136  27.2912  28.1830  29.1130

     occupation numbers 
     1.0000   1.0000   1.0000   1.0000   0.0000   0.0000   0.0000   0.0000
     0.0000   0.0000   0.0000   0.0000   0.0000   0.0000   0.0000   0.0000
     0.0000   0.0000   0.0000   0.0000

          k =-0.1250 0.6250-0.8750 (  2132 PWs)   bands (ev):

    -2.2044  -0.6508   2.1801   3.2771   8.6386  10.5201  11.5219  13.6850
    14.6416  17.3214  18.4769  20.5823  21.6323  22.2613  23.8115  24.6425
    25.0142  25.7054  27.3884  28.0718

     occupation numbers 
     1.0000   1.0000   1.0000   1.0000   0.0000   0.0000   0.0000   0.0000
     0.0000   0.0000   0.0000   0.0000   0.0000   0.0000   0.0000   0.0000
     0.0000   0.0000   0.0000   0.0000

          k = 0.6250-0.1250-0.1250 (  2114 PWs)   bands (ev):

    -3.8826   1.3386   3.5662   4.0258   7.6020   9.1445  12.2380  12.5003
    16.2237  16.4449  17.9156  19.4609  20.0220  21.0977  22.1530  23.3823
    24.6851  26.1877  28.2370  30.5039

     occupation numbers 
     1.0000   1.0000   1.0000   1.0000   0.0000   0.0000   0.0000   0.0000
     0.0000   0.0000   0.0000   0.0000   0.0000   0.0000   0.0000   0.0000
     0.0000   0.0000   0.0000   0.0000

          k = 0.3750 0.1250-0.3750 (  2117 PWs)   bands (ev):

    -4.4233   1.6397   3.9317   5.4549   8.9854   9.9194  10.0948  12.5498
    12.7068  16.1046  16.3269  18.6875  20.2487  21.7013  22.6647  24.3250
    25.1165  28.0441  28.3279  29.2968

     occupation numbers 
     1.0000   1.0000   1.0000   1.0000   0.0000   0.0000   0.0000   0.0000
     0.0000   0.0000   0.0000   0.0000   0.0000   0.0000   0.0000   0.0000
     0.0000   0.0000   0.0000   0.0000

          k = 0.1250 0.3750-0.1250 (  2106 PWs)   bands (ev):

    -4.9319   3.0343   4.9128   5.0022   8.3916   9.9713  10.7053  10.9940
    13.7650  14.4251  16.2846  17.8540  19.3925  20.6664  23.8671  24.3687
    25.5475  27.8993  27.9163  29.4030

     occupation numbers 
     1.0000   1.0000   1.0000   1.0000   0.0000   0.0000   0.0000   0.0000
     0.0000   0.0000   0.0000   0.0000   0.0000   0.0000   0.0000   0.0000
     0.0000   0.0000   0.0000   0.0000

          k =-0.1250 0.6250-0.3750 (  2117 PWs)   bands (ev):

    -3.4548   0.4286   2.9235   4.3079   9.1268   9.8043  11.2650  12.1710
    15.2667  15.9735  18.2576  19.1845  20.4921  21.4013  23.5434  24.5168
    25.3136  27.2913  28.1830  29.1130

     occupation numbers 
     1.0000   1.0000   1.0000   1.0000   0.0000   0.0000   0.0000   0.0000
     0.0000   0.0000   0.0000   0.0000   0.0000   0.0000   0.0000   0.0000
     0.0000   0.0000   0.0000   0.0000

          k = 0.6250-0.1250 0.3750 (  2117 PWs)   bands (ev):

    -3.4548   0.4286   2.9235   4.3079   9.1268   9.8043  11.2650  12.1710
    15.2667  15.9735  18.2577  19.1845  20.4921  21.4013  23.5434  24.5168
    25.3137  27.2913  28.1830  29.1130

     occupation numbers 
     1.0000   1.0000   1.0000   1.0000   0.0000   0.0000   0.0000   0.0000
     0.0000   0.0000   0.0000   0.0000   0.0000   0.0000   0.0000   0.0000
     0.0000   0.0000   0.0000   0.0000

          k = 0.3750 0.1250 0.1250 (  2106 PWs)   bands (ev):

    -4.9319   3.0343   4.9128   5.0022   8.3916   9.9713  10.7053  10.9940
    13.7650  14.4251  16.2846  17.8540  19.3925  20.6664  23.8671  24.3687
    25.5475  27.8993  27.9163  29.4030

     occupation numbers 
     1.0000   1.0000   1.0000   1.0000   0.0000   0.0000   0.0000   0.0000
     0.0000   0.0000   0.0000   0.0000   0.0000   0.0000   0.0000   0.0000
     0.0000   0.0000   0.0000   0.0000

          k = 0.3750 0.6250 0.1250 (  2117 PWs)   bands (ev):

    -3.4548   0.4286   2.9235   4.3079   9.1268   9.8043  11.2650  12.1710
    15.2667  15.9735  18.2576  19.1845  20.4921  21.4013  23.5434  24.5168
    25.3136  27.2912  28.1830  29.1130

     occupation numbers 
     1.0000   1.0000   1.0000   1.0000   0.0000   0.0000   0.0000   0.0000
     0.0000   0.0000   0.0000   0.0000   0.0000   0.0000   0.0000   0.0000
     0.0000   0.0000   0.0000   0.0000

          k = 0.1250 0.8750-0.1250 (  2127 PWs)   bands (ev):

    -2.3829  -0.5478   2.8042   3.5518   7.1463   8.2183  14.5052  14.5973
    17.0019  17.0429  18.5585  19.1328  21.2025  21.2071  22.2077  24.9672
    25.1057  25.7228  27.0688  28.5905

     occupation numbers 
     1.0000   1.0000   1.0000   1.0000   0.0000   0.0000   0.0000   0.0000
     0.0000   0.0000   0.0000   0.0000   0.0000   0.0000   0.0000   0.0000
     0.0000   0.0000   0.0000   0.0000

          k = 0.8750 0.1250 0.6250 (  2132 PWs)   bands (ev):

    -2.2044  -0.6508   2.1801   3.2771   8.6386  10.5201  11.5219  13.6850
    14.6416  17.3214  18.4769  20.5823  21.6323  22.2613  23.8115  24.6425
    25.0142  25.7054  27.3885  28.0716

     occupation numbers 
     1.0000   1.0000   1.0000   1.0000   0.0000   0.0000   0.0000   0.0000
     0.0000   0.0000   0.0000   0.0000   0.0000   0.0000   0.0000   0.0000
     0.0000   0.0000   0.0000   0.0000

          k = 0.6250 0.3750 0.3750 (  2115 PWs)   bands (ev):

    -3.2517  -0.4853   3.9676   4.6691   8.4547   9.7642  10.3412  13.6138
    15.2376  16.7185  17.8011  17.8957  18.7862  21.3046  24.6074  25.9511
    26.6111  27.4118  28.3051  28.6549

     occupation numbers 
     1.0000   1.0000   1.0000   1.0000   0.0000   0.0000   0.0000   0.0000
     0.0000   0.0000   0.0000   0.0000   0.0000   0.0000   0.0000   0.0000
     0.0000   0.0000   0.0000   0.0000

          k =-0.3750-0.1250-0.6250 (  2117 PWs)   bands (ev):

    -3.4548   0.4286   2.9235   4.3079   9.1268   9.8043  11.2650  12.1710
    15.2667  15.9735  18.2576  19.1845  20.4921  21.4013  23.5434  24.5168
    25.3136  27.2913  28.1830  29.1130

     occupation numbers 
     1.0000   1.0000   1.0000   1.0000   0.0000   0.0000   0.0000   0.0000
     0.0000   0.0000   0.0000   0.0000   0.0000   0.0000   0.0000   0.0000
     0.0000   0.0000   0.0000   0.0000

          k =-0.6250 0.1250-0.8750 (  2132 PWs)   bands (ev):

    -2.2044  -0.6508   2.1801   3.2771   8.6386  10.5201  11.5219  13.6850
    14.6416  17.3214  18.4769  20.5823  21.6323  22.2613  23.8115  24.6425
    25.0142  25.7054  27.3884  28.0716

     occupation numbers 
     1.0000   1.0000   1.0000   1.0000   0.0000   0.0000   0.0000   0.0000
     0.0000   0.0000   0.0000   0.0000   0.0000   0.0000   0.0000   0.0000
     0.0000   0.0000   0.0000   0.0000

          k = 0.1250-0.6250-0.1250 (  2114 PWs)   bands (ev):

    -3.8826   1.3386   3.5662   4.0258   7.6020   9.1445  12.2380  12.5003
    16.2237  16.4449  17.9156  19.4609  20.0220  21.0977  22.1530  23.3823
    24.6851  26.1877  28.2370  30.5039

     occupation numbers 
     1.0000   1.0000   1.0000   1.0000   0.0000   0.0000   0.0000   0.0000
     0.0000   0.0000   0.0000   0.0000   0.0000   0.0000   0.0000   0.0000
     0.0000   0.0000   0.0000   0.0000

          k =-0.1250-0.3750-0.3750 (  2117 PWs)   bands (ev):

    -4.4233   1.6397   3.9317   5.4549   8.9854   9.9194  10.0948  12.5498
    12.7068  16.1046  16.3269  18.6875  20.2487  21.7013  22.6647  24.3250
    25.1166  28.0442  28.3279  29.2968

     occupation numbers 
     1.0000   1.0000   1.0000   1.0000   0.0000   0.0000   0.0000   0.0000
     0.0000   0.0000   0.0000   0.0000   0.0000   0.0000   0.0000   0.0000
     0.0000   0.0000   0.0000   0.0000

          k =-0.1250 0.1250-0.3750 (  2106 PWs)   bands (ev):

    -4.9319   3.0343   4.9128   5.0022   8.3916   9.9713  10.7053  10.9940
    13.7650  14.4251  16.2846  17.8540  19.3925  20.6664  23.8671  24.3687
    25.5475  27.8993  27.9163  29.4030

     occupation numbers 
     1.0000   1.0000   1.0000   1.0000   0.0000   0.0000   0.0000   0.0000
     0.0000   0.0000   0.0000   0.0000   0.0000   0.0000   0.0000   0.0000
     0.0000   0.0000   0.0000   0.0000

          k =-0.3750 0.3750-0.6250 (  2115 PWs)   bands (ev):

    -3.2517  -0.4853   3.9676   4.6691   8.4547   9.7642  10.3412  13.6138
    15.2376  16.7185  17.8011  17.8957  18.7862  21.3046  24.6074  25.9511
    26.6111  27.4118  28.3051  28.6549

     occupation numbers 
     1.0000   1.0000   1.0000   1.0000   0.0000   0.0000   0.0000   0.0000
     0.0000   0.0000   0.0000   0.0000   0.0000   0.0000   0.0000   0.0000
     0.0000   0.0000   0.0000   0.0000

          k = 0.3750-0.3750 0.1250 (  2117 PWs)   bands (ev):

    -4.4233   1.6397   3.9317   5.4549   8.9854   9.9194  10.0948  12.5498
    12.7068  16.1046  16.3269  18.6875  20.2487  21.7013  22.6647  24.3250
    25.1166  28.0441  28.3279  29.2968

     occupation numbers 
     1.0000   1.0000   1.0000   1.0000   0.0000   0.0000   0.0000   0.0000
     0.0000   0.0000   0.0000   0.0000   0.0000   0.0000   0.0000   0.0000
     0.0000   0.0000   0.0000   0.0000

          k = 0.1250-0.1250-0.1250 (  2112 PWs)   bands (ev):

    -5.4693   4.6534   5.9390   5.9390   8.7572   9.2255   9.2255  11.0045
    13.4768  13.4768  15.0191  16.9475  18.6655  18.6655  22.8961  27.4057
    27.4057  27.7219  30.3243  30.3243

     occupation numbers 
     1.0000   1.0000   1.0000   1.0000   0.0000   0.0000   0.0000   0.0000
     0.0000   0.0000   0.0000   0.0000   0.0000   0.0000   0.0000   0.0000
     0.0000   0.0000   0.0000   0.0000

     highest occupied, lowest unoccupied level (ev):     5.9390    7.1463

!    total energy              =     -15.74122429 Ry
     estimated scf accuracy    <          3.9E-09 Ry

     The total energy is the sum of the following terms:
     one-electron contribution =       4.77321025 Ry
     hartree contribution      =       1.09517942 Ry
     xc contribution           =      -4.81277717 Ry
     ewald contribution        =     -16.79683678 Ry

     convergence has been achieved in   5 iterations

     Writing output data file ../tmp/si.save/

     init_run     :      1.21s CPU      1.25s WALL (       1 calls)
     electrons    :     24.81s CPU     25.70s WALL (       1 calls)

     Called by init_run:
     wfcinit      :      1.16s CPU      1.20s WALL (       1 calls)
     wfcinit:atom :      0.01s CPU      0.01s WALL (      64 calls)
     wfcinit:wfcr :      1.10s CPU      1.14s WALL (      64 calls)
     potinit      :      0.02s CPU      0.02s WALL (       1 calls)
     hinit0       :      0.03s CPU      0.03s WALL (       1 calls)

     Called by electrons:
     c_bands      :     22.18s CPU     22.94s WALL (       6 calls)
     sum_band     :      2.58s CPU      2.68s WALL (       6 calls)
     v_of_rho     :      0.06s CPU      0.07s WALL (       6 calls)
     v_h          :      0.00s CPU      0.00s WALL (       6 calls)
     v_xc         :      0.05s CPU      0.06s WALL (       6 calls)
     mix_rho      :      0.01s CPU      0.01s WALL (       6 calls)

     Called by c_bands:
     init_us_2    :      0.12s CPU      0.12s WALL (     832 calls)
     cegterg      :     21.98s CPU     22.74s WALL (     384 calls)

     Called by sum_band:
     sum_band:wei :      0.00s CPU      0.00s WALL (       6 calls)
     sum_band:loo :      2.57s CPU      2.67s WALL (       6 calls)
     sum_band:buf :      0.02s CPU      0.02s WALL (     384 calls)
     sum_band:ini :      0.05s CPU      0.06s WALL (     384 calls)

     Called by *egterg:
     cdiaghg      :      1.95s CPU      2.00s WALL (    1600 calls)
     cegterg:over :      2.20s CPU      2.25s WALL (    1280 calls)
     cegterg:upda :      1.10s CPU      1.14s WALL (    1280 calls)
     cegterg:last :      1.83s CPU      1.85s WALL (     836 calls)
     cdiaghg:chol :      0.20s CPU      0.20s WALL (    1600 calls)
     cdiaghg:inve :      0.04s CPU      0.04s WALL (    1600 calls)
     cdiaghg:para :      0.35s CPU      0.36s WALL (    3200 calls)
     h_psi        :     15.10s CPU     15.71s WALL (    1728 calls)
     g_psi        :      0.08s CPU      0.08s WALL (    1280 calls)

     Called by h_psi:
     h_psi:calbec :      0.47s CPU      0.48s WALL (    1728 calls)
     vloc_psi     :     14.22s CPU     14.79s WALL (    1728 calls)
     add_vuspsi   :      0.33s CPU      0.35s WALL (    1728 calls)

     General routines
     calbec       :      0.46s CPU      0.48s WALL (    1728 calls)
     fft          :      0.03s CPU      0.04s WALL (      60 calls)
     ffts         :      0.00s CPU      0.00s WALL (       6 calls)
     fftw         :     15.36s CPU     15.99s WALL (   50856 calls)

     Parallel routines
     fft_scatt_xy :      1.11s CPU      1.15s WALL (   50922 calls)
     fft_scatt_yz :      4.81s CPU      5.01s WALL (   50922 calls)

     PWSCF        :     26.11s CPU     27.09s WALL


   This run was terminated on:  19:24:50   1Oct2023            

=------------------------------------------------------------------------------=
   JOB DONE.
=------------------------------------------------------------------------------=
