
     Program PWSCF v.6.7MaX starts on 11Oct2023 at 11: 5: 5 

     This program is part of the open-source Quantum ESPRESSO suite
     for quantum simulation of materials; please cite
         "P. Giannozzi et al., J. Phys.:Condens. Matter 21 395502 (2009);
         "P. Giannozzi et al., J. Phys.:Condens. Matter 29 465901 (2017);
          URL http://www.quantum-espresso.org", 
     in publications or presentations arising from this work. More details at
     http://www.quantum-espresso.org/quote

     Parallel version (MPI), running on     6 processors

     MPI processes distributed on     1 nodes
     R & G space division:  proc/nbgrp/npool/nimage =       6
     Waiting for input...
     Reading input from standard input

     Current dimensions of program PWSCF are:
     Max number of different atomic species (ntypx) = 10
     Max number of k-points (npk) =  40000
     Max angular momentum in pseudopotentials (lmaxx) =  3

     Atomic positions and unit cell read from directory:
     ../tmp/si.save/


     Subspace diagonalization in iterative solution of the eigenvalue problem:
     one sub-group per band group will be used
     scalapack distributed-memory algorithm (size of sub-group:  2*  2 procs)


     Parallelization info
     --------------------
     sticks:   dense  smooth     PW     G-vecs:    dense   smooth      PW
     Min         242     242     70                 6102     6102     960
     Max         244     244     71                 6103     6103     964
     Sum        1459    1459    421                36613    36613    5769



     bravais-lattice index     =            2
     lattice parameter (alat)  =      10.2625  a.u.
     unit-cell volume          =     270.2088 (a.u.)^3
     number of atoms/cell      =            2
     number of atomic types    =            1
     number of electrons       =         8.00
     number of Kohn-Sham states=           20
     kinetic-energy cutoff     =     100.0000  Ry
     charge density cutoff     =     400.0000  Ry
     Exchange-correlation= SLA-PZ-NOGX-NOGC
                           (   1   1   0   0   0   0   0)

     celldm(1)=  10.262500  celldm(2)=   0.000000  celldm(3)=   0.000000
     celldm(4)=   0.000000  celldm(5)=   0.000000  celldm(6)=   0.000000

     crystal axes: (cart. coord. in units of alat)
               a(1) = (  -0.500000   0.000000   0.500000 )  
               a(2) = (   0.000000   0.500000   0.500000 )  
               a(3) = (  -0.500000   0.500000   0.000000 )  

     reciprocal axes: (cart. coord. in units 2 pi/alat)
               b(1) = ( -1.000000 -1.000000  1.000000 )  
               b(2) = (  1.000000  1.000000  1.000000 )  
               b(3) = ( -1.000000  1.000000 -1.000000 )  


     PseudoPot. # 1 for Si read from file:
     ../pseudo/Si.pz-hgh.UPF
     MD5 check sum: 1986ae057721399be2fba4fdaa96191e
     Pseudo is Norm-conserving, Zval =  4.0
     Generated in analytical, separable form
     Using radial grid of 1141 points,  3 beta functions with: 
                l(1) =   0
                l(2) =   0
                l(3) =   1

     atomic species   valence    mass     pseudopotential
        Si             4.00    28.08550     Si( 1.00)

     No symmetry found


                                    s                        frac. trans.

      isym =  1     identity                                     

 cryst.   s( 1) = (     1          0          0      )
                  (     0          1          0      )
                  (     0          0          1      )

 cart.    s( 1) = (  1.0000000  0.0000000  0.0000000 )
                  (  0.0000000  1.0000000  0.0000000 )
                  (  0.0000000  0.0000000  1.0000000 )


     point group C_1 (1)    
     there are  1 classes
     the character table:

       E    
A      1.00

     the symmetry operations in each class and the name of the first element:

     E        1
          identity                                               

   Cartesian axes

     site n.     atom                  positions (alat units)
         1           Si  tau(   1) = (   0.0000000   0.0000000   0.0000000  )
         2           Si  tau(   2) = (   0.2500000   0.2500000   0.2500000  )

   Crystallographic axes

     site n.     atom                  positions (cryst. coord.)
         1           Si  tau(   1) = (  0.0000000  0.0000000  0.0000000  )
         2           Si  tau(   2) = ( -0.2500000  0.7500000 -0.2500000  )

     number of k points=    64
                       cart. coord. in units 2pi/alat
        k(    1) = (  -0.1250000   0.1250000   0.1250000), wk =   0.0312500
        k(    2) = (  -0.3750000   0.3750000  -0.1250000), wk =   0.0312500
        k(    3) = (   0.3750000  -0.3750000   0.6250000), wk =   0.0312500
        k(    4) = (   0.1250000  -0.1250000   0.3750000), wk =   0.0312500
        k(    5) = (   0.1250000   0.3750000   0.3750000), wk =   0.0312500
        k(    6) = (  -0.1250000   0.6250000   0.1250000), wk =   0.0312500
        k(    7) = (   0.6250000  -0.1250000   0.8750000), wk =   0.0312500
        k(    8) = (   0.3750000   0.1250000   0.6250000), wk =   0.0312500
        k(    9) = (  -0.6250000  -0.3750000  -0.3750000), wk =   0.0312500
        k(   10) = (  -0.8750000  -0.1250000  -0.6250000), wk =   0.0312500
        k(   11) = (  -0.1250000  -0.8750000   0.1250000), wk =   0.0312500
        k(   12) = (  -0.3750000  -0.6250000  -0.1250000), wk =   0.0312500
        k(   13) = (  -0.3750000  -0.1250000  -0.1250000), wk =   0.0312500
        k(   14) = (  -0.6250000   0.1250000  -0.3750000), wk =   0.0312500
        k(   15) = (   0.1250000  -0.6250000   0.3750000), wk =   0.0312500
        k(   16) = (  -0.1250000  -0.3750000   0.1250000), wk =   0.0312500
        k(   17) = (  -0.3750000  -0.1250000   0.3750000), wk =   0.0312500
        k(   18) = (  -0.6250000   0.1250000   0.1250000), wk =   0.0312500
        k(   19) = (   0.1250000  -0.6250000   0.8750000), wk =   0.0312500
        k(   20) = (  -0.1250000  -0.3750000   0.6250000), wk =   0.0312500
        k(   21) = (  -0.1250000   0.1250000   0.6250000), wk =   0.0312500
        k(   22) = (  -0.3750000   0.3750000   0.3750000), wk =   0.0312500
        k(   23) = (   0.3750000  -0.3750000   1.1250000), wk =   0.0312500
        k(   24) = (   0.1250000  -0.1250000   0.8750000), wk =   0.0312500
        k(   25) = (  -0.8750000  -0.6250000  -0.1250000), wk =   0.0312500
        k(   26) = (  -1.1250000  -0.3750000  -0.3750000), wk =   0.0312500
        k(   27) = (  -0.3750000  -1.1250000   0.3750000), wk =   0.0312500
        k(   28) = (  -0.6250000  -0.8750000   0.1250000), wk =   0.0312500
        k(   29) = (  -0.6250000  -0.3750000   0.1250000), wk =   0.0312500
        k(   30) = (  -0.8750000  -0.1250000  -0.1250000), wk =   0.0312500
        k(   31) = (  -0.1250000  -0.8750000   0.6250000), wk =   0.0312500
        k(   32) = (  -0.3750000  -0.6250000   0.3750000), wk =   0.0312500
        k(   33) = (   0.3750000   0.6250000  -0.3750000), wk =   0.0312500
        k(   34) = (   0.1250000   0.8750000  -0.6250000), wk =   0.0312500
        k(   35) = (   0.8750000   0.1250000   0.1250000), wk =   0.0312500
        k(   36) = (   0.6250000   0.3750000  -0.1250000), wk =   0.0312500
        k(   37) = (   0.6250000   0.8750000  -0.1250000), wk =   0.0312500
        k(   38) = (   0.3750000   1.1250000  -0.3750000), wk =   0.0312500
        k(   39) = (   1.1250000   0.3750000   0.3750000), wk =   0.0312500
        k(   40) = (   0.8750000   0.6250000   0.1250000), wk =   0.0312500
        k(   41) = (  -0.1250000   0.1250000  -0.8750000), wk =   0.0312500
        k(   42) = (  -0.3750000   0.3750000  -1.1250000), wk =   0.0312500
        k(   43) = (   0.3750000  -0.3750000  -0.3750000), wk =   0.0312500
        k(   44) = (   0.1250000  -0.1250000  -0.6250000), wk =   0.0312500
        k(   45) = (   0.1250000   0.3750000  -0.6250000), wk =   0.0312500
        k(   46) = (  -0.1250000   0.6250000  -0.8750000), wk =   0.0312500
        k(   47) = (   0.6250000  -0.1250000  -0.1250000), wk =   0.0312500
        k(   48) = (   0.3750000   0.1250000  -0.3750000), wk =   0.0312500
        k(   49) = (   0.1250000   0.3750000  -0.1250000), wk =   0.0312500
        k(   50) = (  -0.1250000   0.6250000  -0.3750000), wk =   0.0312500
        k(   51) = (   0.6250000  -0.1250000   0.3750000), wk =   0.0312500
        k(   52) = (   0.3750000   0.1250000   0.1250000), wk =   0.0312500
        k(   53) = (   0.3750000   0.6250000   0.1250000), wk =   0.0312500
        k(   54) = (   0.1250000   0.8750000  -0.1250000), wk =   0.0312500
        k(   55) = (   0.8750000   0.1250000   0.6250000), wk =   0.0312500
        k(   56) = (   0.6250000   0.3750000   0.3750000), wk =   0.0312500
        k(   57) = (  -0.3750000  -0.1250000  -0.6250000), wk =   0.0312500
        k(   58) = (  -0.6250000   0.1250000  -0.8750000), wk =   0.0312500
        k(   59) = (   0.1250000  -0.6250000  -0.1250000), wk =   0.0312500
        k(   60) = (  -0.1250000  -0.3750000  -0.3750000), wk =   0.0312500
        k(   61) = (  -0.1250000   0.1250000  -0.3750000), wk =   0.0312500
        k(   62) = (  -0.3750000   0.3750000  -0.6250000), wk =   0.0312500
        k(   63) = (   0.3750000  -0.3750000   0.1250000), wk =   0.0312500
        k(   64) = (   0.1250000  -0.1250000  -0.1250000), wk =   0.0312500

                       cryst. coord.
        k(    1) = (   0.1250000   0.1250000   0.1250000), wk =   0.0312500
        k(    2) = (   0.1250000   0.1250000   0.3750000), wk =   0.0312500
        k(    3) = (   0.1250000   0.1250000  -0.3750000), wk =   0.0312500
        k(    4) = (   0.1250000   0.1250000  -0.1250000), wk =   0.0312500
        k(    5) = (   0.1250000   0.3750000   0.1250000), wk =   0.0312500
        k(    6) = (   0.1250000   0.3750000   0.3750000), wk =   0.0312500
        k(    7) = (   0.1250000   0.3750000  -0.3750000), wk =   0.0312500
        k(    8) = (   0.1250000   0.3750000  -0.1250000), wk =   0.0312500
        k(    9) = (   0.1250000  -0.3750000   0.1250000), wk =   0.0312500
        k(   10) = (   0.1250000  -0.3750000   0.3750000), wk =   0.0312500
        k(   11) = (   0.1250000  -0.3750000  -0.3750000), wk =   0.0312500
        k(   12) = (   0.1250000  -0.3750000  -0.1250000), wk =   0.0312500
        k(   13) = (   0.1250000  -0.1250000   0.1250000), wk =   0.0312500
        k(   14) = (   0.1250000  -0.1250000   0.3750000), wk =   0.0312500
        k(   15) = (   0.1250000  -0.1250000  -0.3750000), wk =   0.0312500
        k(   16) = (   0.1250000  -0.1250000  -0.1250000), wk =   0.0312500
        k(   17) = (   0.3750000   0.1250000   0.1250000), wk =   0.0312500
        k(   18) = (   0.3750000   0.1250000   0.3750000), wk =   0.0312500
        k(   19) = (   0.3750000   0.1250000  -0.3750000), wk =   0.0312500
        k(   20) = (   0.3750000   0.1250000  -0.1250000), wk =   0.0312500
        k(   21) = (   0.3750000   0.3750000   0.1250000), wk =   0.0312500
        k(   22) = (   0.3750000   0.3750000   0.3750000), wk =   0.0312500
        k(   23) = (   0.3750000   0.3750000  -0.3750000), wk =   0.0312500
        k(   24) = (   0.3750000   0.3750000  -0.1250000), wk =   0.0312500
        k(   25) = (   0.3750000  -0.3750000   0.1250000), wk =   0.0312500
        k(   26) = (   0.3750000  -0.3750000   0.3750000), wk =   0.0312500
        k(   27) = (   0.3750000  -0.3750000  -0.3750000), wk =   0.0312500
        k(   28) = (   0.3750000  -0.3750000  -0.1250000), wk =   0.0312500
        k(   29) = (   0.3750000  -0.1250000   0.1250000), wk =   0.0312500
        k(   30) = (   0.3750000  -0.1250000   0.3750000), wk =   0.0312500
        k(   31) = (   0.3750000  -0.1250000  -0.3750000), wk =   0.0312500
        k(   32) = (   0.3750000  -0.1250000  -0.1250000), wk =   0.0312500
        k(   33) = (  -0.3750000   0.1250000   0.1250000), wk =   0.0312500
        k(   34) = (  -0.3750000   0.1250000   0.3750000), wk =   0.0312500
        k(   35) = (  -0.3750000   0.1250000  -0.3750000), wk =   0.0312500
        k(   36) = (  -0.3750000   0.1250000  -0.1250000), wk =   0.0312500
        k(   37) = (  -0.3750000   0.3750000   0.1250000), wk =   0.0312500
        k(   38) = (  -0.3750000   0.3750000   0.3750000), wk =   0.0312500
        k(   39) = (  -0.3750000   0.3750000  -0.3750000), wk =   0.0312500
        k(   40) = (  -0.3750000   0.3750000  -0.1250000), wk =   0.0312500
        k(   41) = (  -0.3750000  -0.3750000   0.1250000), wk =   0.0312500
        k(   42) = (  -0.3750000  -0.3750000   0.3750000), wk =   0.0312500
        k(   43) = (  -0.3750000  -0.3750000  -0.3750000), wk =   0.0312500
        k(   44) = (  -0.3750000  -0.3750000  -0.1250000), wk =   0.0312500
        k(   45) = (  -0.3750000  -0.1250000   0.1250000), wk =   0.0312500
        k(   46) = (  -0.3750000  -0.1250000   0.3750000), wk =   0.0312500
        k(   47) = (  -0.3750000  -0.1250000  -0.3750000), wk =   0.0312500
        k(   48) = (  -0.3750000  -0.1250000  -0.1250000), wk =   0.0312500
        k(   49) = (  -0.1250000   0.1250000   0.1250000), wk =   0.0312500
        k(   50) = (  -0.1250000   0.1250000   0.3750000), wk =   0.0312500
        k(   51) = (  -0.1250000   0.1250000  -0.3750000), wk =   0.0312500
        k(   52) = (  -0.1250000   0.1250000  -0.1250000), wk =   0.0312500
        k(   53) = (  -0.1250000   0.3750000   0.1250000), wk =   0.0312500
        k(   54) = (  -0.1250000   0.3750000   0.3750000), wk =   0.0312500
        k(   55) = (  -0.1250000   0.3750000  -0.3750000), wk =   0.0312500
        k(   56) = (  -0.1250000   0.3750000  -0.1250000), wk =   0.0312500
        k(   57) = (  -0.1250000  -0.3750000   0.1250000), wk =   0.0312500
        k(   58) = (  -0.1250000  -0.3750000   0.3750000), wk =   0.0312500
        k(   59) = (  -0.1250000  -0.3750000  -0.3750000), wk =   0.0312500
        k(   60) = (  -0.1250000  -0.3750000  -0.1250000), wk =   0.0312500
        k(   61) = (  -0.1250000  -0.1250000   0.1250000), wk =   0.0312500
        k(   62) = (  -0.1250000  -0.1250000   0.3750000), wk =   0.0312500
        k(   63) = (  -0.1250000  -0.1250000  -0.3750000), wk =   0.0312500
        k(   64) = (  -0.1250000  -0.1250000  -0.1250000), wk =   0.0312500

     Dense  grid:    36613 G-vectors     FFT dimensions: (  48,  48,  48)

     Dynamical RAM for                 wfc:       0.23 MB

     Dynamical RAM for     wfc (w. buffer):       0.23 MB

     Dynamical RAM for           str. fact:       0.09 MB

     Dynamical RAM for           local pot:       0.00 MB

     Dynamical RAM for          nlocal pot:       0.12 MB

     Dynamical RAM for                qrad:       0.28 MB

     Dynamical RAM for          rho,v,vnew:       0.70 MB

     Dynamical RAM for           G-vectors:       0.40 MB

     Dynamical RAM for          h,s,v(r/c):       0.02 MB

     Dynamical RAM for          <psi|beta>:       0.00 MB

     Dynamical RAM for                 psi:       0.46 MB

     Dynamical RAM for                hpsi:       0.46 MB

     Dynamical RAM for      wfcinit/wfcrot:       0.47 MB

     Estimated static dynamical RAM per process >       2.70 MB

     Estimated max dynamical RAM per process >       3.65 MB

     Estimated total dynamical RAM >      21.91 MB

     The potential is recalculated from file :
     ../tmp/si.save/charge-density

     Starting wfcs are random

     Band Structure Calculation
     Davidson diagonalization with overlap

     Computing kpt #:     1  of    64
     total cpu time spent up to now is       51.4 secs

     Computing kpt #:     2  of    64
     total cpu time spent up to now is       51.9 secs

     Computing kpt #:     3  of    64
     total cpu time spent up to now is       52.3 secs

     Computing kpt #:     4  of    64
     total cpu time spent up to now is       52.8 secs

     Computing kpt #:     5  of    64
     total cpu time spent up to now is       53.3 secs

     Computing kpt #:     6  of    64
     total cpu time spent up to now is       53.8 secs

     Computing kpt #:     7  of    64
     total cpu time spent up to now is       54.3 secs

     Computing kpt #:     8  of    64
     total cpu time spent up to now is       54.8 secs

     Computing kpt #:     9  of    64
     total cpu time spent up to now is       55.3 secs

     Computing kpt #:    10  of    64
     total cpu time spent up to now is       55.8 secs

     Computing kpt #:    11  of    64
     total cpu time spent up to now is       56.7 secs

     Computing kpt #:    12  of    64
     total cpu time spent up to now is       57.2 secs

     Computing kpt #:    13  of    64
     total cpu time spent up to now is       57.7 secs

     Computing kpt #:    14  of    64
     total cpu time spent up to now is       58.2 secs

     Computing kpt #:    15  of    64
     total cpu time spent up to now is       58.7 secs

     Computing kpt #:    16  of    64
     total cpu time spent up to now is       59.1 secs

     Computing kpt #:    17  of    64
     total cpu time spent up to now is       59.6 secs

     Computing kpt #:    18  of    64
     total cpu time spent up to now is       60.2 secs

     Computing kpt #:    19  of    64
     total cpu time spent up to now is       60.7 secs

     Computing kpt #:    20  of    64
     total cpu time spent up to now is       61.2 secs

     Computing kpt #:    21  of    64
     total cpu time spent up to now is       61.7 secs

     Computing kpt #:    22  of    64
     total cpu time spent up to now is       62.3 secs

     Computing kpt #:    23  of    64
     total cpu time spent up to now is       62.7 secs

     Computing kpt #:    24  of    64
     total cpu time spent up to now is       63.3 secs

     Computing kpt #:    25  of    64
     total cpu time spent up to now is       63.9 secs

     Computing kpt #:    26  of    64
     total cpu time spent up to now is       64.4 secs

     Computing kpt #:    27  of    64
     total cpu time spent up to now is       64.8 secs

     Computing kpt #:    28  of    64
     total cpu time spent up to now is       65.3 secs

     Computing kpt #:    29  of    64
     total cpu time spent up to now is       65.8 secs

     Computing kpt #:    30  of    64
     total cpu time spent up to now is       66.4 secs

     Computing kpt #:    31  of    64
     total cpu time spent up to now is       67.0 secs

     Computing kpt #:    32  of    64
     total cpu time spent up to now is       67.4 secs

     Computing kpt #:    33  of    64
     total cpu time spent up to now is       67.9 secs

     Computing kpt #:    34  of    64
     total cpu time spent up to now is       68.4 secs

     Computing kpt #:    35  of    64
     total cpu time spent up to now is       68.9 secs

     Computing kpt #:    36  of    64
     total cpu time spent up to now is       69.4 secs

     Computing kpt #:    37  of    64
     total cpu time spent up to now is       69.9 secs

     Computing kpt #:    38  of    64
     total cpu time spent up to now is       70.4 secs

     Computing kpt #:    39  of    64
     total cpu time spent up to now is       70.9 secs

     Computing kpt #:    40  of    64
     total cpu time spent up to now is       71.4 secs

     Computing kpt #:    41  of    64
     total cpu time spent up to now is       72.0 secs

     Computing kpt #:    42  of    64
     total cpu time spent up to now is       72.4 secs

     Computing kpt #:    43  of    64
     total cpu time spent up to now is       73.0 secs

     Computing kpt #:    44  of    64
     total cpu time spent up to now is       73.5 secs

     Computing kpt #:    45  of    64
     total cpu time spent up to now is       73.9 secs

     Computing kpt #:    46  of    64
     total cpu time spent up to now is       74.4 secs

     Computing kpt #:    47  of    64
     total cpu time spent up to now is       74.9 secs

     Computing kpt #:    48  of    64
     total cpu time spent up to now is       75.3 secs

     Computing kpt #:    49  of    64
     total cpu time spent up to now is       75.8 secs

     Computing kpt #:    50  of    64
     total cpu time spent up to now is       76.3 secs

     Computing kpt #:    51  of    64
     total cpu time spent up to now is       76.9 secs

     Computing kpt #:    52  of    64
     total cpu time spent up to now is       77.5 secs

     Computing kpt #:    53  of    64
     total cpu time spent up to now is       78.1 secs

     Computing kpt #:    54  of    64
     total cpu time spent up to now is       78.8 secs

     Computing kpt #:    55  of    64
     total cpu time spent up to now is       79.4 secs

     Computing kpt #:    56  of    64
     total cpu time spent up to now is       80.0 secs

     Computing kpt #:    57  of    64
     total cpu time spent up to now is       80.6 secs

     Computing kpt #:    58  of    64
     total cpu time spent up to now is       81.2 secs

     Computing kpt #:    59  of    64
     total cpu time spent up to now is       81.9 secs

     Computing kpt #:    60  of    64
     total cpu time spent up to now is       82.6 secs

     Computing kpt #:    61  of    64
     total cpu time spent up to now is       83.2 secs

     Computing kpt #:    62  of    64
     total cpu time spent up to now is       83.8 secs

     Computing kpt #:    63  of    64
     total cpu time spent up to now is       84.4 secs

     Computing kpt #:    64  of    64
     total cpu time spent up to now is       85.0 secs

     ethr =  1.25E-10,  avg # of iterations = 31.7

     total cpu time spent up to now is       85.0 secs

     End of band structure calculation

          k =-0.1250 0.1250 0.1250 (  4576 PWs)   bands (ev):

    -5.7371   4.4047   5.7290   5.7290   8.4410   8.9914   8.9914  10.5442
    13.2779  13.2779  14.4739  16.5570  18.3357  18.3357  22.3333  26.8662
    26.8662  27.0007  29.6182  29.6182

     occupation numbers 
     1.0000   1.0000   1.0000   1.0000   0.0000   0.0000   0.0000   0.0000
     0.0000   0.0000   0.0000   0.0000   0.0000   0.0000   0.0000   0.0000
     0.0000   0.0000   0.0000   0.0000

          k =-0.3750 0.3750-0.1250 (  4573 PWs)   bands (ev):

    -4.6908   1.3788   3.6976   5.2477   8.6501   9.6779   9.8197  12.1891
    12.4833  15.6451  15.9904  18.2493  19.8726  21.2884  22.3038  23.7277
    24.7034  27.4572  27.7757  28.5941

     occupation numbers 
     1.0000   1.0000   1.0000   1.0000   0.0000   0.0000   0.0000   0.0000
     0.0000   0.0000   0.0000   0.0000   0.0000   0.0000   0.0000   0.0000
     0.0000   0.0000   0.0000   0.0000

          k = 0.3750-0.3750 0.6250 (  4547 PWs)   bands (ev):

    -3.5196  -0.7464   3.7273   4.4607   8.1300   9.4706  10.0993  13.2909
    14.8708  16.4774  17.3666  17.5998  18.2770  20.8092  24.0411  25.5304
    26.0475  26.8596  27.7178  28.0809

     occupation numbers 
     1.0000   1.0000   1.0000   1.0000   0.0000   0.0000   0.0000   0.0000
     0.0000   0.0000   0.0000   0.0000   0.0000   0.0000   0.0000   0.0000
     0.0000   0.0000   0.0000   0.0000

          k = 0.1250-0.1250 0.3750 (  4578 PWs)   bands (ev):

    -5.1998   2.7784   4.7023   4.7675   8.1144   9.6478  10.4582  10.7072
    13.3674  14.2285  15.8082  17.4189  19.0653  20.3075  23.4477  23.8303
    25.0124  27.2095  27.4037  28.7190

     occupation numbers 
     1.0000   1.0000   1.0000   1.0000   0.0000   0.0000   0.0000   0.0000
     0.0000   0.0000   0.0000   0.0000   0.0000   0.0000   0.0000   0.0000
     0.0000   0.0000   0.0000   0.0000

          k = 0.1250 0.3750 0.3750 (  4573 PWs)   bands (ev):

    -4.6908   1.3788   3.6976   5.2477   8.6501   9.6779   9.8197  12.1891
    12.4833  15.6451  15.9904  18.2493  19.8726  21.2884  22.3038  23.7277
    24.7034  27.4572  27.7757  28.5941

     occupation numbers 
     1.0000   1.0000   1.0000   1.0000   0.0000   0.0000   0.0000   0.0000
     0.0000   0.0000   0.0000   0.0000   0.0000   0.0000   0.0000   0.0000
     0.0000   0.0000   0.0000   0.0000

          k =-0.1250 0.6250 0.1250 (  4574 PWs)   bands (ev):

    -4.1497   1.0672   3.3399   3.8141   7.3024   8.8399  11.9305  12.2430
    15.9582  16.0088  17.4840  19.1506  19.5615  20.6684  21.7906  22.9343
    24.2880  25.4775  27.5898  29.9077

     occupation numbers 
     1.0000   1.0000   1.0000   1.0000   0.0000   0.0000   0.0000   0.0000
     0.0000   0.0000   0.0000   0.0000   0.0000   0.0000   0.0000   0.0000
     0.0000   0.0000   0.0000   0.0000

          k = 0.6250-0.1250 0.8750 (  4555 PWs)   bands (ev):

    -2.4723  -0.9175   1.9401   3.0518   8.3386  10.2290  11.2215  13.3666
    14.3358  16.9965  18.0990  20.1309  21.2183  21.7904  23.3519  24.1580
    24.4816  25.1562  26.8306  27.4746

     occupation numbers 
     1.0000   1.0000   1.0000   1.0000   0.0000   0.0000   0.0000   0.0000
     0.0000   0.0000   0.0000   0.0000   0.0000   0.0000   0.0000   0.0000
     0.0000   0.0000   0.0000   0.0000

          k = 0.3750 0.1250 0.6250 (  4560 PWs)   bands (ev):

    -3.7227   0.1664   2.6831   4.0882   8.8317   9.5092  10.9618  11.8972
    14.9554  15.6214  17.8657  18.7681  20.0532  20.9780  23.1038  23.9688
    24.8198  26.7959  27.5449  28.5639

     occupation numbers 
     1.0000   1.0000   1.0000   1.0000   0.0000   0.0000   0.0000   0.0000
     0.0000   0.0000   0.0000   0.0000   0.0000   0.0000   0.0000   0.0000
     0.0000   0.0000   0.0000   0.0000

          k =-0.6250-0.3750-0.3750 (  4547 PWs)   bands (ev):

    -3.5196  -0.7464   3.7273   4.4607   8.1300   9.4706  10.0993  13.2909
    14.8708  16.4774  17.3666  17.5998  18.2770  20.8092  24.0411  25.5304
    26.0475  26.8596  27.7178  28.0809

     occupation numbers 
     1.0000   1.0000   1.0000   1.0000   0.0000   0.0000   0.0000   0.0000
     0.0000   0.0000   0.0000   0.0000   0.0000   0.0000   0.0000   0.0000
     0.0000   0.0000   0.0000   0.0000

          k =-0.8750-0.1250-0.6250 (  4555 PWs)   bands (ev):

    -2.4723  -0.9175   1.9401   3.0518   8.3386  10.2290  11.2215  13.3666
    14.3358  16.9965  18.0990  20.1309  21.2183  21.7904  23.3519  24.1580
    24.4816  25.1562  26.8306  27.4746

     occupation numbers 
     1.0000   1.0000   1.0000   1.0000   0.0000   0.0000   0.0000   0.0000
     0.0000   0.0000   0.0000   0.0000   0.0000   0.0000   0.0000   0.0000
     0.0000   0.0000   0.0000   0.0000

          k =-0.1250-0.8750 0.1250 (  4553 PWs)   bands (ev):

    -2.6508  -0.8151   2.5733   3.3398   6.8352   7.9147  14.2175  14.2492
    16.6235  16.7717  18.3183  18.5772  20.6657  20.9191  21.7839  24.5435
    24.5446  25.2164  26.5342  28.1107

     occupation numbers 
     1.0000   1.0000   1.0000   1.0000   0.0000   0.0000   0.0000   0.0000
     0.0000   0.0000   0.0000   0.0000   0.0000   0.0000   0.0000   0.0000
     0.0000   0.0000   0.0000   0.0000

          k =-0.3750-0.6250-0.1250 (  4560 PWs)   bands (ev):

    -3.7227   0.1664   2.6831   4.0882   8.8317   9.5092  10.9618  11.8972
    14.9554  15.6214  17.8657  18.7681  20.0532  20.9780  23.1038  23.9688
    24.8198  26.7959  27.5449  28.5639

     occupation numbers 
     1.0000   1.0000   1.0000   1.0000   0.0000   0.0000   0.0000   0.0000
     0.0000   0.0000   0.0000   0.0000   0.0000   0.0000   0.0000   0.0000
     0.0000   0.0000   0.0000   0.0000

          k =-0.3750-0.1250-0.1250 (  4578 PWs)   bands (ev):

    -5.1998   2.7784   4.7023   4.7675   8.1144   9.6478  10.4582  10.7072
    13.3674  14.2285  15.8082  17.4189  19.0653  20.3075  23.4477  23.8303
    25.0124  27.2095  27.4037  28.7190

     occupation numbers 
     1.0000   1.0000   1.0000   1.0000   0.0000   0.0000   0.0000   0.0000
     0.0000   0.0000   0.0000   0.0000   0.0000   0.0000   0.0000   0.0000
     0.0000   0.0000   0.0000   0.0000

          k =-0.6250 0.1250-0.3750 (  4560 PWs)   bands (ev):

    -3.7227   0.1664   2.6831   4.0882   8.8317   9.5092  10.9618  11.8972
    14.9554  15.6214  17.8657  18.7681  20.0532  20.9780  23.1038  23.9688
    24.8198  26.7959  27.5449  28.5639

     occupation numbers 
     1.0000   1.0000   1.0000   1.0000   0.0000   0.0000   0.0000   0.0000
     0.0000   0.0000   0.0000   0.0000   0.0000   0.0000   0.0000   0.0000
     0.0000   0.0000   0.0000   0.0000

          k = 0.1250-0.6250 0.3750 (  4560 PWs)   bands (ev):

    -3.7227   0.1664   2.6831   4.0882   8.8317   9.5092  10.9618  11.8972
    14.9554  15.6214  17.8657  18.7681  20.0532  20.9780  23.1038  23.9688
    24.8198  26.7959  27.5449  28.5639

     occupation numbers 
     1.0000   1.0000   1.0000   1.0000   0.0000   0.0000   0.0000   0.0000
     0.0000   0.0000   0.0000   0.0000   0.0000   0.0000   0.0000   0.0000
     0.0000   0.0000   0.0000   0.0000

          k =-0.1250-0.3750 0.1250 (  4578 PWs)   bands (ev):

    -5.1998   2.7784   4.7023   4.7675   8.1144   9.6478  10.4582  10.7072
    13.3674  14.2285  15.8082  17.4189  19.0653  20.3075  23.4477  23.8303
    25.0124  27.2095  27.4037  28.7190

     occupation numbers 
     1.0000   1.0000   1.0000   1.0000   0.0000   0.0000   0.0000   0.0000
     0.0000   0.0000   0.0000   0.0000   0.0000   0.0000   0.0000   0.0000
     0.0000   0.0000   0.0000   0.0000

          k =-0.3750-0.1250 0.3750 (  4573 PWs)   bands (ev):

    -4.6908   1.3788   3.6976   5.2477   8.6501   9.6779   9.8197  12.1891
    12.4833  15.6451  15.9904  18.2493  19.8726  21.2884  22.3038  23.7277
    24.7034  27.4572  27.7757  28.5941

     occupation numbers 
     1.0000   1.0000   1.0000   1.0000   0.0000   0.0000   0.0000   0.0000
     0.0000   0.0000   0.0000   0.0000   0.0000   0.0000   0.0000   0.0000
     0.0000   0.0000   0.0000   0.0000

          k =-0.6250 0.1250 0.1250 (  4574 PWs)   bands (ev):

    -4.1497   1.0672   3.3399   3.8141   7.3024   8.8399  11.9305  12.2430
    15.9582  16.0088  17.4840  19.1506  19.5615  20.6684  21.7906  22.9343
    24.2880  25.4775  27.5898  29.9077

     occupation numbers 
     1.0000   1.0000   1.0000   1.0000   0.0000   0.0000   0.0000   0.0000
     0.0000   0.0000   0.0000   0.0000   0.0000   0.0000   0.0000   0.0000
     0.0000   0.0000   0.0000   0.0000

          k = 0.1250-0.6250 0.8750 (  4555 PWs)   bands (ev):

    -2.4723  -0.9175   1.9401   3.0518   8.3386  10.2290  11.2215  13.3666
    14.3358  16.9965  18.0990  20.1309  21.2183  21.7904  23.3519  24.1580
    24.4816  25.1562  26.8306  27.4746

     occupation numbers 
     1.0000   1.0000   1.0000   1.0000   0.0000   0.0000   0.0000   0.0000
     0.0000   0.0000   0.0000   0.0000   0.0000   0.0000   0.0000   0.0000
     0.0000   0.0000   0.0000   0.0000

          k =-0.1250-0.3750 0.6250 (  4560 PWs)   bands (ev):

    -3.7227   0.1664   2.6831   4.0882   8.8317   9.5092  10.9618  11.8972
    14.9554  15.6214  17.8657  18.7681  20.0532  20.9780  23.1038  23.9688
    24.8198  26.7959  27.5449  28.5639

     occupation numbers 
     1.0000   1.0000   1.0000   1.0000   0.0000   0.0000   0.0000   0.0000
     0.0000   0.0000   0.0000   0.0000   0.0000   0.0000   0.0000   0.0000
     0.0000   0.0000   0.0000   0.0000

          k =-0.1250 0.1250 0.6250 (  4574 PWs)   bands (ev):

    -4.1497   1.0672   3.3399   3.8141   7.3024   8.8399  11.9305  12.2430
    15.9582  16.0088  17.4840  19.1506  19.5615  20.6684  21.7906  22.9343
    24.2880  25.4775  27.5898  29.9077

     occupation numbers 
     1.0000   1.0000   1.0000   1.0000   0.0000   0.0000   0.0000   0.0000
     0.0000   0.0000   0.0000   0.0000   0.0000   0.0000   0.0000   0.0000
     0.0000   0.0000   0.0000   0.0000

          k =-0.3750 0.3750 0.3750 (  4567 PWs)   bands (ev):

    -4.2464   0.0552   4.9357   4.9357   7.5676   9.4529   9.4529  13.7181
    14.5819  14.5819  15.4240  19.6908  19.6908  19.7465  22.4025  24.4302
    24.4302  28.6592  29.5150  29.6054

     occupation numbers 
     1.0000   1.0000   1.0000   1.0000   0.0000   0.0000   0.0000   0.0000
     0.0000   0.0000   0.0000   0.0000   0.0000   0.0000   0.0000   0.0000
     0.0000   0.0000   0.0000   0.0000

          k = 0.3750-0.3750 1.1250 (  4549 PWs)   bands (ev):

    -3.0163  -0.6325   2.0074   4.1365   7.7904  11.3786  11.4693  12.8869
    13.8891  13.9765  18.4248  20.7690  20.7990  21.8347  22.2607  24.2452
    25.1533  25.6635  27.5608  27.9420

     occupation numbers 
     1.0000   1.0000   1.0000   1.0000   0.0000   0.0000   0.0000   0.0000
     0.0000   0.0000   0.0000   0.0000   0.0000   0.0000   0.0000   0.0000
     0.0000   0.0000   0.0000   0.0000

          k = 0.1250-0.1250 0.8750 (  4553 PWs)   bands (ev):

    -2.6508  -0.8151   2.5733   3.3398   6.8352   7.9147  14.2175  14.2492
    16.6235  16.7717  18.3183  18.5772  20.6657  20.9191  21.7839  24.5435
    24.5446  25.2164  26.5342  28.1107

     occupation numbers 
     1.0000   1.0000   1.0000   1.0000   0.0000   0.0000   0.0000   0.0000
     0.0000   0.0000   0.0000   0.0000   0.0000   0.0000   0.0000   0.0000
     0.0000   0.0000   0.0000   0.0000

          k =-0.8750-0.6250-0.1250 (  4555 PWs)   bands (ev):

    -2.4723  -0.9175   1.9401   3.0518   8.3386  10.2290  11.2215  13.3666
    14.3358  16.9965  18.0990  20.1309  21.2183  21.7904  23.3519  24.1580
    24.4816  25.1562  26.8306  27.4746

     occupation numbers 
     1.0000   1.0000   1.0000   1.0000   0.0000   0.0000   0.0000   0.0000
     0.0000   0.0000   0.0000   0.0000   0.0000   0.0000   0.0000   0.0000
     0.0000   0.0000   0.0000   0.0000

          k =-1.1250-0.3750-0.3750 (  4549 PWs)   bands (ev):

    -3.0163  -0.6325   2.0074   4.1365   7.7904  11.3786  11.4693  12.8869
    13.8891  13.9765  18.4248  20.7690  20.7990  21.8347  22.2607  24.2452
    25.1533  25.6635  27.5608  27.9420

     occupation numbers 
     1.0000   1.0000   1.0000   1.0000   0.0000   0.0000   0.0000   0.0000
     0.0000   0.0000   0.0000   0.0000   0.0000   0.0000   0.0000   0.0000
     0.0000   0.0000   0.0000   0.0000

          k =-0.3750-1.1250 0.3750 (  4549 PWs)   bands (ev):

    -3.0163  -0.6325   2.0074   4.1365   7.7904  11.3786  11.4693  12.8869
    13.8891  13.9765  18.4248  20.7690  20.7990  21.8347  22.2607  24.2452
    25.1533  25.6635  27.5608  27.9420

     occupation numbers 
     1.0000   1.0000   1.0000   1.0000   0.0000   0.0000   0.0000   0.0000
     0.0000   0.0000   0.0000   0.0000   0.0000   0.0000   0.0000   0.0000
     0.0000   0.0000   0.0000   0.0000

          k =-0.6250-0.8750 0.1250 (  4555 PWs)   bands (ev):

    -2.4723  -0.9175   1.9401   3.0518   8.3386  10.2290  11.2215  13.3666
    14.3358  16.9965  18.0990  20.1309  21.2183  21.7904  23.3519  24.1580
    24.4816  25.1562  26.8306  27.4746

     occupation numbers 
     1.0000   1.0000   1.0000   1.0000   0.0000   0.0000   0.0000   0.0000
     0.0000   0.0000   0.0000   0.0000   0.0000   0.0000   0.0000   0.0000
     0.0000   0.0000   0.0000   0.0000

          k =-0.6250-0.3750 0.1250 (  4560 PWs)   bands (ev):

    -3.7227   0.1664   2.6831   4.0882   8.8317   9.5092  10.9618  11.8972
    14.9554  15.6214  17.8657  18.7681  20.0532  20.9780  23.1038  23.9688
    24.8198  26.7959  27.5449  28.5639

     occupation numbers 
     1.0000   1.0000   1.0000   1.0000   0.0000   0.0000   0.0000   0.0000
     0.0000   0.0000   0.0000   0.0000   0.0000   0.0000   0.0000   0.0000
     0.0000   0.0000   0.0000   0.0000

          k =-0.8750-0.1250-0.1250 (  4553 PWs)   bands (ev):

    -2.6508  -0.8151   2.5733   3.3398   6.8352   7.9147  14.2175  14.2492
    16.6235  16.7717  18.3183  18.5772  20.6657  20.9191  21.7839  24.5435
    24.5446  25.2164  26.5342  28.1107

     occupation numbers 
     1.0000   1.0000   1.0000   1.0000   0.0000   0.0000   0.0000   0.0000
     0.0000   0.0000   0.0000   0.0000   0.0000   0.0000   0.0000   0.0000
     0.0000   0.0000   0.0000   0.0000

          k =-0.1250-0.8750 0.6250 (  4555 PWs)   bands (ev):

    -2.4723  -0.9175   1.9401   3.0518   8.3386  10.2290  11.2215  13.3666
    14.3358  16.9965  18.0990  20.1309  21.2183  21.7904  23.3519  24.1580
    24.4816  25.1562  26.8306  27.4746

     occupation numbers 
     1.0000   1.0000   1.0000   1.0000   0.0000   0.0000   0.0000   0.0000
     0.0000   0.0000   0.0000   0.0000   0.0000   0.0000   0.0000   0.0000
     0.0000   0.0000   0.0000   0.0000

          k =-0.3750-0.6250 0.3750 (  4547 PWs)   bands (ev):

    -3.5196  -0.7464   3.7273   4.4607   8.1300   9.4706  10.0993  13.2909
    14.8708  16.4774  17.3666  17.5998  18.2770  20.8092  24.0411  25.5304
    26.0475  26.8596  27.7178  28.0809

     occupation numbers 
     1.0000   1.0000   1.0000   1.0000   0.0000   0.0000   0.0000   0.0000
     0.0000   0.0000   0.0000   0.0000   0.0000   0.0000   0.0000   0.0000
     0.0000   0.0000   0.0000   0.0000

          k = 0.3750 0.6250-0.3750 (  4547 PWs)   bands (ev):

    -3.5196  -0.7464   3.7273   4.4607   8.1300   9.4706  10.0993  13.2909
    14.8708  16.4774  17.3666  17.5998  18.2770  20.8092  24.0411  25.5304
    26.0475  26.8596  27.7178  28.0809

     occupation numbers 
     1.0000   1.0000   1.0000   1.0000   0.0000   0.0000   0.0000   0.0000
     0.0000   0.0000   0.0000   0.0000   0.0000   0.0000   0.0000   0.0000
     0.0000   0.0000   0.0000   0.0000

          k = 0.1250 0.8750-0.6250 (  4555 PWs)   bands (ev):

    -2.4723  -0.9175   1.9401   3.0518   8.3386  10.2290  11.2215  13.3666
    14.3358  16.9965  18.0990  20.1309  21.2183  21.7904  23.3519  24.1580
    24.4816  25.1562  26.8306  27.4746

     occupation numbers 
     1.0000   1.0000   1.0000   1.0000   0.0000   0.0000   0.0000   0.0000
     0.0000   0.0000   0.0000   0.0000   0.0000   0.0000   0.0000   0.0000
     0.0000   0.0000   0.0000   0.0000

          k = 0.8750 0.1250 0.1250 (  4553 PWs)   bands (ev):

    -2.6508  -0.8151   2.5733   3.3398   6.8352   7.9147  14.2175  14.2492
    16.6235  16.7717  18.3183  18.5772  20.6657  20.9191  21.7839  24.5435
    24.5446  25.2164  26.5342  28.1107

     occupation numbers 
     1.0000   1.0000   1.0000   1.0000   0.0000   0.0000   0.0000   0.0000
     0.0000   0.0000   0.0000   0.0000   0.0000   0.0000   0.0000   0.0000
     0.0000   0.0000   0.0000   0.0000

          k = 0.6250 0.3750-0.1250 (  4560 PWs)   bands (ev):

    -3.7227   0.1664   2.6831   4.0882   8.8317   9.5092  10.9618  11.8972
    14.9554  15.6214  17.8657  18.7681  20.0532  20.9780  23.1038  23.9688
    24.8198  26.7959  27.5449  28.5639

     occupation numbers 
     1.0000   1.0000   1.0000   1.0000   0.0000   0.0000   0.0000   0.0000
     0.0000   0.0000   0.0000   0.0000   0.0000   0.0000   0.0000   0.0000
     0.0000   0.0000   0.0000   0.0000

          k = 0.6250 0.8750-0.1250 (  4555 PWs)   bands (ev):

    -2.4723  -0.9175   1.9401   3.0518   8.3386  10.2290  11.2215  13.3666
    14.3358  16.9965  18.0990  20.1309  21.2183  21.7904  23.3519  24.1580
    24.4816  25.1562  26.8306  27.4746

     occupation numbers 
     1.0000   1.0000   1.0000   1.0000   0.0000   0.0000   0.0000   0.0000
     0.0000   0.0000   0.0000   0.0000   0.0000   0.0000   0.0000   0.0000
     0.0000   0.0000   0.0000   0.0000

          k = 0.3750 1.1250-0.3750 (  4549 PWs)   bands (ev):

    -3.0163  -0.6325   2.0074   4.1365   7.7904  11.3786  11.4693  12.8869
    13.8891  13.9765  18.4248  20.7690  20.7990  21.8347  22.2607  24.2452
    25.1533  25.6635  27.5608  27.9420

     occupation numbers 
     1.0000   1.0000   1.0000   1.0000   0.0000   0.0000   0.0000   0.0000
     0.0000   0.0000   0.0000   0.0000   0.0000   0.0000   0.0000   0.0000
     0.0000   0.0000   0.0000   0.0000

          k = 1.1250 0.3750 0.3750 (  4549 PWs)   bands (ev):

    -3.0163  -0.6325   2.0074   4.1365   7.7904  11.3786  11.4693  12.8869
    13.8891  13.9765  18.4248  20.7690  20.7990  21.8347  22.2607  24.2452
    25.1533  25.6635  27.5608  27.9420

     occupation numbers 
     1.0000   1.0000   1.0000   1.0000   0.0000   0.0000   0.0000   0.0000
     0.0000   0.0000   0.0000   0.0000   0.0000   0.0000   0.0000   0.0000
     0.0000   0.0000   0.0000   0.0000

          k = 0.8750 0.6250 0.1250 (  4555 PWs)   bands (ev):

    -2.4723  -0.9175   1.9401   3.0518   8.3386  10.2290  11.2215  13.3666
    14.3358  16.9965  18.0990  20.1309  21.2183  21.7904  23.3519  24.1580
    24.4816  25.1562  26.8306  27.4746

     occupation numbers 
     1.0000   1.0000   1.0000   1.0000   0.0000   0.0000   0.0000   0.0000
     0.0000   0.0000   0.0000   0.0000   0.0000   0.0000   0.0000   0.0000
     0.0000   0.0000   0.0000   0.0000

          k =-0.1250 0.1250-0.8750 (  4553 PWs)   bands (ev):

    -2.6508  -0.8151   2.5733   3.3398   6.8352   7.9147  14.2175  14.2492
    16.6235  16.7717  18.3183  18.5772  20.6657  20.9191  21.7839  24.5435
    24.5446  25.2164  26.5342  28.1107

     occupation numbers 
     1.0000   1.0000   1.0000   1.0000   0.0000   0.0000   0.0000   0.0000
     0.0000   0.0000   0.0000   0.0000   0.0000   0.0000   0.0000   0.0000
     0.0000   0.0000   0.0000   0.0000

          k =-0.3750 0.3750-1.1250 (  4549 PWs)   bands (ev):

    -3.0163  -0.6325   2.0074   4.1365   7.7904  11.3786  11.4693  12.8869
    13.8891  13.9765  18.4248  20.7690  20.7990  21.8347  22.2607  24.2452
    25.1533  25.6635  27.5608  27.9420

     occupation numbers 
     1.0000   1.0000   1.0000   1.0000   0.0000   0.0000   0.0000   0.0000
     0.0000   0.0000   0.0000   0.0000   0.0000   0.0000   0.0000   0.0000
     0.0000   0.0000   0.0000   0.0000

          k = 0.3750-0.3750-0.3750 (  4567 PWs)   bands (ev):

    -4.2464   0.0552   4.9357   4.9357   7.5676   9.4529   9.4529  13.7181
    14.5819  14.5819  15.4240  19.6908  19.6908  19.7465  22.4025  24.4302
    24.4302  28.6592  29.5150  29.6054

     occupation numbers 
     1.0000   1.0000   1.0000   1.0000   0.0000   0.0000   0.0000   0.0000
     0.0000   0.0000   0.0000   0.0000   0.0000   0.0000   0.0000   0.0000
     0.0000   0.0000   0.0000   0.0000

          k = 0.1250-0.1250-0.6250 (  4574 PWs)   bands (ev):

    -4.1497   1.0672   3.3399   3.8141   7.3024   8.8399  11.9305  12.2430
    15.9582  16.0088  17.4840  19.1506  19.5615  20.6684  21.7906  22.9343
    24.2880  25.4775  27.5898  29.9077

     occupation numbers 
     1.0000   1.0000   1.0000   1.0000   0.0000   0.0000   0.0000   0.0000
     0.0000   0.0000   0.0000   0.0000   0.0000   0.0000   0.0000   0.0000
     0.0000   0.0000   0.0000   0.0000

          k = 0.1250 0.3750-0.6250 (  4560 PWs)   bands (ev):

    -3.7227   0.1664   2.6831   4.0882   8.8317   9.5092  10.9618  11.8972
    14.9554  15.6214  17.8657  18.7681  20.0532  20.9780  23.1038  23.9688
    24.8198  26.7959  27.5449  28.5639

     occupation numbers 
     1.0000   1.0000   1.0000   1.0000   0.0000   0.0000   0.0000   0.0000
     0.0000   0.0000   0.0000   0.0000   0.0000   0.0000   0.0000   0.0000
     0.0000   0.0000   0.0000   0.0000

          k =-0.1250 0.6250-0.8750 (  4555 PWs)   bands (ev):

    -2.4723  -0.9175   1.9401   3.0518   8.3386  10.2290  11.2215  13.3666
    14.3358  16.9965  18.0990  20.1309  21.2183  21.7904  23.3519  24.1580
    24.4816  25.1562  26.8306  27.4746

     occupation numbers 
     1.0000   1.0000   1.0000   1.0000   0.0000   0.0000   0.0000   0.0000
     0.0000   0.0000   0.0000   0.0000   0.0000   0.0000   0.0000   0.0000
     0.0000   0.0000   0.0000   0.0000

          k = 0.6250-0.1250-0.1250 (  4574 PWs)   bands (ev):

    -4.1497   1.0672   3.3399   3.8141   7.3024   8.8399  11.9305  12.2430
    15.9582  16.0088  17.4840  19.1506  19.5615  20.6684  21.7906  22.9343
    24.2880  25.4775  27.5898  29.9077

     occupation numbers 
     1.0000   1.0000   1.0000   1.0000   0.0000   0.0000   0.0000   0.0000
     0.0000   0.0000   0.0000   0.0000   0.0000   0.0000   0.0000   0.0000
     0.0000   0.0000   0.0000   0.0000

          k = 0.3750 0.1250-0.3750 (  4573 PWs)   bands (ev):

    -4.6908   1.3788   3.6976   5.2477   8.6501   9.6779   9.8197  12.1891
    12.4833  15.6451  15.9904  18.2493  19.8726  21.2884  22.3038  23.7277
    24.7034  27.4572  27.7757  28.5941

     occupation numbers 
     1.0000   1.0000   1.0000   1.0000   0.0000   0.0000   0.0000   0.0000
     0.0000   0.0000   0.0000   0.0000   0.0000   0.0000   0.0000   0.0000
     0.0000   0.0000   0.0000   0.0000

          k = 0.1250 0.3750-0.1250 (  4578 PWs)   bands (ev):

    -5.1998   2.7784   4.7023   4.7675   8.1144   9.6478  10.4582  10.7072
    13.3674  14.2285  15.8082  17.4189  19.0653  20.3075  23.4477  23.8303
    25.0124  27.2095  27.4037  28.7190

     occupation numbers 
     1.0000   1.0000   1.0000   1.0000   0.0000   0.0000   0.0000   0.0000
     0.0000   0.0000   0.0000   0.0000   0.0000   0.0000   0.0000   0.0000
     0.0000   0.0000   0.0000   0.0000

          k =-0.1250 0.6250-0.3750 (  4560 PWs)   bands (ev):

    -3.7227   0.1664   2.6831   4.0882   8.8317   9.5092  10.9618  11.8972
    14.9554  15.6214  17.8657  18.7681  20.0532  20.9780  23.1038  23.9688
    24.8198  26.7959  27.5449  28.5639

     occupation numbers 
     1.0000   1.0000   1.0000   1.0000   0.0000   0.0000   0.0000   0.0000
     0.0000   0.0000   0.0000   0.0000   0.0000   0.0000   0.0000   0.0000
     0.0000   0.0000   0.0000   0.0000

          k = 0.6250-0.1250 0.3750 (  4560 PWs)   bands (ev):

    -3.7227   0.1664   2.6831   4.0882   8.8317   9.5092  10.9618  11.8972
    14.9554  15.6214  17.8657  18.7681  20.0532  20.9780  23.1038  23.9688
    24.8198  26.7959  27.5449  28.5639

     occupation numbers 
     1.0000   1.0000   1.0000   1.0000   0.0000   0.0000   0.0000   0.0000
     0.0000   0.0000   0.0000   0.0000   0.0000   0.0000   0.0000   0.0000
     0.0000   0.0000   0.0000   0.0000

          k = 0.3750 0.1250 0.1250 (  4578 PWs)   bands (ev):

    -5.1998   2.7784   4.7023   4.7675   8.1144   9.6478  10.4582  10.7072
    13.3674  14.2285  15.8082  17.4189  19.0653  20.3075  23.4477  23.8303
    25.0124  27.2095  27.4037  28.7190

     occupation numbers 
     1.0000   1.0000   1.0000   1.0000   0.0000   0.0000   0.0000   0.0000
     0.0000   0.0000   0.0000   0.0000   0.0000   0.0000   0.0000   0.0000
     0.0000   0.0000   0.0000   0.0000

          k = 0.3750 0.6250 0.1250 (  4560 PWs)   bands (ev):

    -3.7227   0.1664   2.6831   4.0882   8.8317   9.5092  10.9618  11.8972
    14.9554  15.6214  17.8657  18.7681  20.0532  20.9780  23.1038  23.9688
    24.8198  26.7959  27.5449  28.5639

     occupation numbers 
     1.0000   1.0000   1.0000   1.0000   0.0000   0.0000   0.0000   0.0000
     0.0000   0.0000   0.0000   0.0000   0.0000   0.0000   0.0000   0.0000
     0.0000   0.0000   0.0000   0.0000

          k = 0.1250 0.8750-0.1250 (  4553 PWs)   bands (ev):

    -2.6508  -0.8151   2.5733   3.3398   6.8352   7.9147  14.2175  14.2492
    16.6235  16.7717  18.3183  18.5772  20.6657  20.9191  21.7839  24.5435
    24.5446  25.2164  26.5342  28.1107

     occupation numbers 
     1.0000   1.0000   1.0000   1.0000   0.0000   0.0000   0.0000   0.0000
     0.0000   0.0000   0.0000   0.0000   0.0000   0.0000   0.0000   0.0000
     0.0000   0.0000   0.0000   0.0000

          k = 0.8750 0.1250 0.6250 (  4555 PWs)   bands (ev):

    -2.4723  -0.9175   1.9401   3.0518   8.3386  10.2290  11.2215  13.3666
    14.3358  16.9965  18.0990  20.1309  21.2183  21.7904  23.3519  24.1580
    24.4816  25.1562  26.8306  27.4746

     occupation numbers 
     1.0000   1.0000   1.0000   1.0000   0.0000   0.0000   0.0000   0.0000
     0.0000   0.0000   0.0000   0.0000   0.0000   0.0000   0.0000   0.0000
     0.0000   0.0000   0.0000   0.0000

          k = 0.6250 0.3750 0.3750 (  4547 PWs)   bands (ev):

    -3.5196  -0.7464   3.7273   4.4607   8.1300   9.4706  10.0993  13.2909
    14.8708  16.4774  17.3666  17.5998  18.2770  20.8092  24.0411  25.5304
    26.0475  26.8596  27.7178  28.0809

     occupation numbers 
     1.0000   1.0000   1.0000   1.0000   0.0000   0.0000   0.0000   0.0000
     0.0000   0.0000   0.0000   0.0000   0.0000   0.0000   0.0000   0.0000
     0.0000   0.0000   0.0000   0.0000

          k =-0.3750-0.1250-0.6250 (  4560 PWs)   bands (ev):

    -3.7227   0.1664   2.6831   4.0882   8.8317   9.5092  10.9618  11.8972
    14.9554  15.6214  17.8657  18.7681  20.0532  20.9780  23.1038  23.9688
    24.8198  26.7959  27.5449  28.5639

     occupation numbers 
     1.0000   1.0000   1.0000   1.0000   0.0000   0.0000   0.0000   0.0000
     0.0000   0.0000   0.0000   0.0000   0.0000   0.0000   0.0000   0.0000
     0.0000   0.0000   0.0000   0.0000

          k =-0.6250 0.1250-0.8750 (  4555 PWs)   bands (ev):

    -2.4723  -0.9175   1.9401   3.0518   8.3386  10.2290  11.2215  13.3666
    14.3358  16.9965  18.0990  20.1309  21.2183  21.7904  23.3519  24.1580
    24.4816  25.1562  26.8306  27.4746

     occupation numbers 
     1.0000   1.0000   1.0000   1.0000   0.0000   0.0000   0.0000   0.0000
     0.0000   0.0000   0.0000   0.0000   0.0000   0.0000   0.0000   0.0000
     0.0000   0.0000   0.0000   0.0000

          k = 0.1250-0.6250-0.1250 (  4574 PWs)   bands (ev):

    -4.1497   1.0672   3.3399   3.8141   7.3024   8.8399  11.9305  12.2430
    15.9582  16.0088  17.4840  19.1506  19.5615  20.6684  21.7906  22.9343
    24.2880  25.4775  27.5898  29.9077

     occupation numbers 
     1.0000   1.0000   1.0000   1.0000   0.0000   0.0000   0.0000   0.0000
     0.0000   0.0000   0.0000   0.0000   0.0000   0.0000   0.0000   0.0000
     0.0000   0.0000   0.0000   0.0000

          k =-0.1250-0.3750-0.3750 (  4573 PWs)   bands (ev):

    -4.6908   1.3788   3.6976   5.2477   8.6501   9.6779   9.8197  12.1891
    12.4833  15.6451  15.9904  18.2493  19.8726  21.2884  22.3038  23.7277
    24.7034  27.4572  27.7757  28.5941

     occupation numbers 
     1.0000   1.0000   1.0000   1.0000   0.0000   0.0000   0.0000   0.0000
     0.0000   0.0000   0.0000   0.0000   0.0000   0.0000   0.0000   0.0000
     0.0000   0.0000   0.0000   0.0000

          k =-0.1250 0.1250-0.3750 (  4578 PWs)   bands (ev):

    -5.1998   2.7784   4.7023   4.7675   8.1144   9.6478  10.4582  10.7072
    13.3674  14.2285  15.8082  17.4189  19.0653  20.3075  23.4477  23.8303
    25.0124  27.2095  27.4037  28.7190

     occupation numbers 
     1.0000   1.0000   1.0000   1.0000   0.0000   0.0000   0.0000   0.0000
     0.0000   0.0000   0.0000   0.0000   0.0000   0.0000   0.0000   0.0000
     0.0000   0.0000   0.0000   0.0000

          k =-0.3750 0.3750-0.6250 (  4547 PWs)   bands (ev):

    -3.5196  -0.7464   3.7273   4.4607   8.1300   9.4706  10.0993  13.2909
    14.8708  16.4774  17.3666  17.5998  18.2770  20.8092  24.0411  25.5304
    26.0475  26.8596  27.7178  28.0809

     occupation numbers 
     1.0000   1.0000   1.0000   1.0000   0.0000   0.0000   0.0000   0.0000
     0.0000   0.0000   0.0000   0.0000   0.0000   0.0000   0.0000   0.0000
     0.0000   0.0000   0.0000   0.0000

          k = 0.3750-0.3750 0.1250 (  4573 PWs)   bands (ev):

    -4.6908   1.3788   3.6976   5.2477   8.6501   9.6779   9.8197  12.1891
    12.4833  15.6451  15.9904  18.2493  19.8726  21.2884  22.3038  23.7277
    24.7034  27.4572  27.7757  28.5941

     occupation numbers 
     1.0000   1.0000   1.0000   1.0000   0.0000   0.0000   0.0000   0.0000
     0.0000   0.0000   0.0000   0.0000   0.0000   0.0000   0.0000   0.0000
     0.0000   0.0000   0.0000   0.0000

          k = 0.1250-0.1250-0.1250 (  4576 PWs)   bands (ev):

    -5.7371   4.4047   5.7290   5.7290   8.4410   8.9914   8.9914  10.5442
    13.2779  13.2779  14.4739  16.5570  18.3357  18.3357  22.3333  26.8662
    26.8662  27.0007  29.6182  29.6182

     occupation numbers 
     1.0000   1.0000   1.0000   1.0000   0.0000   0.0000   0.0000   0.0000
     0.0000   0.0000   0.0000   0.0000   0.0000   0.0000   0.0000   0.0000
     0.0000   0.0000   0.0000   0.0000

     highest occupied, lowest unoccupied level (ev):     5.7290    6.8352

     Writing output data file ../tmp/si.save/

     init_run     :      0.03s CPU      0.04s WALL (       1 calls)
     electrons    :     31.45s CPU     34.12s WALL (       1 calls)

     Called by init_run:
     wfcinit      :      0.00s CPU      0.00s WALL (       1 calls)
     wfcinit:atom :      0.00s CPU      0.00s WALL (      64 calls)
     wfcinit:wfcr :      0.96s CPU      1.03s WALL (      64 calls)
     potinit      :      0.00s CPU      0.00s WALL (       1 calls)
     hinit0       :      0.02s CPU      0.02s WALL (       1 calls)

     Called by electrons:
     c_bands      :     31.45s CPU     34.12s WALL (       1 calls)
     v_of_rho     :      0.00s CPU      0.00s WALL (       1 calls)
     v_h          :      0.00s CPU      0.00s WALL (       1 calls)
     v_xc         :      0.00s CPU      0.00s WALL (       1 calls)

     Called by c_bands:
     init_us_2    :      0.01s CPU      0.01s WALL (      64 calls)
     cegterg      :     30.34s CPU     32.37s WALL (     135 calls)

     Called by sum_band:

     Called by *egterg:
     cdiaghg      :      3.04s CPU      3.16s WALL (    2095 calls)
     cegterg:over :      4.44s CPU      4.66s WALL (    2031 calls)
     cegterg:upda :      2.02s CPU      2.07s WALL (    2031 calls)
     cegterg:last :      3.76s CPU      3.88s WALL (    1377 calls)
     cdiaghg:chol :      0.28s CPU      0.29s WALL (    2095 calls)
     cdiaghg:inve :      0.05s CPU      0.06s WALL (    2095 calls)
     cdiaghg:para :      0.53s CPU      0.55s WALL (    4190 calls)
     h_psi        :     17.22s CPU     18.80s WALL (    2230 calls)
     g_psi        :      0.21s CPU      0.21s WALL (    2031 calls)

     Called by h_psi:
     h_psi:calbec :      0.66s CPU      0.74s WALL (    2230 calls)
     vloc_psi     :     16.09s CPU     17.55s WALL (    2230 calls)
     add_vuspsi   :      0.39s CPU      0.44s WALL (    2230 calls)

     General routines
     calbec       :      0.65s CPU      0.73s WALL (    2230 calls)
     fft          :      0.00s CPU      0.00s WALL (       3 calls)
     fftw         :     14.19s CPU     15.46s WALL (   57666 calls)
     davcio       :      0.02s CPU      0.59s WALL (     128 calls)

     Parallel routines
     fft_scatt_xy :      1.70s CPU      1.86s WALL (   57669 calls)
     fft_scatt_yz :      6.82s CPU      7.43s WALL (   57669 calls)

     PWSCF        :   1m18.38s CPU   1m28.16s WALL


   This run was terminated on:  11: 6:33  11Oct2023            

=------------------------------------------------------------------------------=
   JOB DONE.
=------------------------------------------------------------------------------=
