
     Program PWSCF v.7.2 starts on  9Oct2023 at 12:42:27 

     This program is part of the open-source Quantum ESPRESSO suite
     for quantum simulation of materials; please cite
         "P. Giannozzi et al., J. Phys.:Condens. Matter 21 395502 (2009);
         "P. Giannozzi et al., J. Phys.:Condens. Matter 29 465901 (2017);
         "P. Giannozzi et al., J. Chem. Phys. 152 154105 (2020);
          URL http://www.quantum-espresso.org", 
     in publications or presentations arising from this work. More details at
     http://www.quantum-espresso.org/quote

     Parallel version (MPI), running on    32 processors

     MPI processes distributed on     1 nodes
     165275 MiB available memory on the printing compute node when the environment starts
 
     Waiting for input...
     Reading input from standard input

     Current dimensions of program PWSCF are:
     Max number of different atomic species (ntypx) = 10
     Max number of k-points (npk) =  40000
     Max angular momentum in pseudopotentials (lmaxx) =  4
     Message from routine setup:
     using ibrav=0 with symmetry is DISCOURAGED, use correct ibrav instead
 
     R & G space division:  proc/nbgrp/npool/nimage =      32
     Subspace diagonalization in iterative solution of the eigenvalue problem:
     one sub-group per band group will be used
     custom distributed-memory algorithm (size of sub-group:  3*  3 procs)

 
     Parallelization info
     --------------------
     sticks:   dense  smooth     PW     G-vecs:    dense   smooth      PW
     Min        1262    1262    315               190812   190812   23845
     Max        1263    1263    316               190817   190817   23850
     Sum       40413   40413  10097              6106079  6106079  763121
 
     Using Slab Decomposition
 


     bravais-lattice index     =            0
     lattice parameter (alat)  =      53.0972  a.u.
     unit-cell volume          =  149697.4655 (a.u.)^3
     number of atoms/cell      =           32
     number of atomic types    =            1
     number of electrons       =       608.00
     number of Kohn-Sham states=          310
     kinetic-energy cutoff     =      45.0000  Ry
     charge density cutoff     =     180.0000  Ry
     scf convergence threshold =      1.0E-08
     mixing beta               =       0.1500
     number of iterations used =            8  plain     mixing
     Exchange-correlation= PBESOL
                           (   1   4  10   8   0   0   0)

     celldm(1)=  53.097183  celldm(2)=   0.000000  celldm(3)=   0.000000
     celldm(4)=   0.000000  celldm(5)=   0.000000  celldm(6)=   0.000000

     crystal axes: (cart. coord. in units of alat)
               a(1) = (   1.000000   0.000000   0.000000 )  
               a(2) = (   0.000000   1.000000   0.000000 )  
               a(3) = (   0.000000   0.000000   1.000000 )  

     reciprocal axes: (cart. coord. in units 2 pi/alat)
               b(1) = (  1.000000  0.000000  0.000000 )  
               b(2) = (  0.000000  1.000000  0.000000 )  
               b(3) = (  0.000000  0.000000  1.000000 )  


     PseudoPot. # 1 for Au read from file:
     ../pseudo/Au_ONCV_PBEsol-1.0.upf
     MD5 check sum: 107326c382cdbc7cf544f5ac04d81467
     Pseudo is Norm-conserving, Zval = 19.0
     Generated using ONCVPSP code by D. R. Hamann
     Using radial grid of 1262 points,  8 beta functions with: 
                l(1) =   0
                l(2) =   0
                l(3) =   1
                l(4) =   1
                l(5) =   2
                l(6) =   2
                l(7) =   3
                l(8) =   3

     atomic species   valence    mass     pseudopotential
        Au            19.00   196.96657     Au( 1.00)

     48 Sym. Ops., with inversion, found



   Cartesian axes

     site n.     atom                  positions (alat units)
         1           Au  tau(   1) = (   0.5480335   0.5480335   0.3558995  )
         2           Au  tau(   2) = (   0.4519665   0.5480335   0.3558995  )
         3           Au  tau(   3) = (   0.5480335   0.4519665   0.3558995  )
         4           Au  tau(   4) = (   0.4519665   0.4519665   0.3558995  )
         5           Au  tau(   5) = (   0.5480335   0.3558995   0.4519665  )
         6           Au  tau(   6) = (   0.5480335   0.6441005   0.4519665  )
         7           Au  tau(   7) = (   0.4519665   0.6441005   0.4519665  )
         8           Au  tau(   8) = (   0.5480335   0.5480335   0.4519665  )
         9           Au  tau(   9) = (   0.4519665   0.5480335   0.4519665  )
        10           Au  tau(  10) = (   0.3558995   0.5480335   0.4519665  )
        11           Au  tau(  11) = (   0.6441005   0.5480335   0.4519665  )
        12           Au  tau(  12) = (   0.4519665   0.4519665   0.4519665  )
        13           Au  tau(  13) = (   0.5480335   0.4519665   0.4519665  )
        14           Au  tau(  14) = (   0.6441005   0.4519665   0.4519665  )
        15           Au  tau(  15) = (   0.4519665   0.3558995   0.4519665  )
        16           Au  tau(  16) = (   0.3558995   0.4519665   0.4519665  )
        17           Au  tau(  17) = (   0.4519665   0.6441005   0.5480335  )
        18           Au  tau(  18) = (   0.4519665   0.4519665   0.5480335  )
        19           Au  tau(  19) = (   0.3558995   0.4519665   0.5480335  )
        20           Au  tau(  20) = (   0.5480335   0.6441005   0.5480335  )
        21           Au  tau(  21) = (   0.5480335   0.4519665   0.5480335  )
        22           Au  tau(  22) = (   0.3558995   0.5480335   0.5480335  )
        23           Au  tau(  23) = (   0.5480335   0.3558995   0.5480335  )
        24           Au  tau(  24) = (   0.4519665   0.5480335   0.5480335  )
        25           Au  tau(  25) = (   0.6441005   0.4519665   0.5480335  )
        26           Au  tau(  26) = (   0.5480335   0.5480335   0.5480335  )
        27           Au  tau(  27) = (   0.4519665   0.3558995   0.5480335  )
        28           Au  tau(  28) = (   0.6441005   0.5480335   0.5480335  )
        29           Au  tau(  29) = (   0.4519665   0.4519665   0.6441005  )
        30           Au  tau(  30) = (   0.4519665   0.5480335   0.6441005  )
        31           Au  tau(  31) = (   0.5480335   0.5480335   0.6441005  )
        32           Au  tau(  32) = (   0.5480335   0.4519665   0.6441005  )

     number of k points=     1
                       cart. coord. in units 2pi/alat
        k(    1) = (   0.0000000   0.0000000   0.0000000), wk =   2.0000000

     Dense  grid:  6106079 G-vectors     FFT dimensions: ( 240, 240, 240)

     Estimated max dynamical RAM per process >       1.03 GB

     Estimated total dynamical RAM >      33.03 GB

     Initial potential from superposition of free atoms

     starting charge     607.9974, renormalised to     608.0000

     negative rho (up, down):  4.250E-03 0.000E+00
     Starting wfcs are  320 randomized atomic wfcs

     total cpu time spent up to now is       22.7 secs

     Self-consistent Calculation

     iteration #  1     ecut=    45.00 Ry     beta= 0.15
     Davidson diagonalization with overlap
     ethr =  1.00E-02,  avg # of iterations =  2.0

     Threshold (ethr) on eigenvalues was too large:
     Diagonalizing with lowered threshold

     Davidson diagonalization with overlap
     ethr =  3.24E-04,  avg # of iterations =  4.0

     negative rho (up, down):  3.588E-03 0.000E+00

     total cpu time spent up to now is      146.2 secs

     total energy              =   -8788.77680814 Ry
     estimated scf accuracy    <       1.82481232 Ry

     iteration #  2     ecut=    45.00 Ry     beta= 0.15
     Davidson diagonalization with overlap
     ethr =  3.00E-04,  avg # of iterations =  2.0

     negative rho (up, down):  2.381E-03 0.000E+00

     total cpu time spent up to now is      202.7 secs

     total energy              =   -8788.59305215 Ry
     estimated scf accuracy    <       0.60906979 Ry

     iteration #  3     ecut=    45.00 Ry     beta= 0.15
     Davidson diagonalization with overlap
     ethr =  1.00E-04,  avg # of iterations =  2.0

     negative rho (up, down):  1.868E-03 0.000E+00

     total cpu time spent up to now is      268.1 secs

     total energy              =   -8788.70939760 Ry
     estimated scf accuracy    <       0.04940527 Ry

     iteration #  4     ecut=    45.00 Ry     beta= 0.15
     Davidson diagonalization with overlap
     ethr =  8.13E-06,  avg # of iterations =  5.0

     negative rho (up, down):  1.354E-03 0.000E+00

     total cpu time spent up to now is      332.4 secs

     total energy              =   -8788.71210147 Ry
     estimated scf accuracy    <       0.02237553 Ry

     iteration #  5     ecut=    45.00 Ry     beta= 0.15
     Davidson diagonalization with overlap
     ethr =  3.68E-06,  avg # of iterations =  3.0

     negative rho (up, down):  2.676E-04 0.000E+00

     total cpu time spent up to now is      389.6 secs

     total energy              =   -8788.70956761 Ry
     estimated scf accuracy    <       0.01105354 Ry

     iteration #  6     ecut=    45.00 Ry     beta= 0.15
     Davidson diagonalization with overlap
     ethr =  1.82E-06,  avg # of iterations =  2.0

     negative rho (up, down):  1.987E-04 0.000E+00

     total cpu time spent up to now is      461.8 secs

     total energy              =   -8788.71096302 Ry
     estimated scf accuracy    <       0.00338697 Ry

     iteration #  7     ecut=    45.00 Ry     beta= 0.15
     Davidson diagonalization with overlap
     ethr =  5.57E-07,  avg # of iterations =  3.0

     negative rho (up, down):  6.963E-05 0.000E+00

     total cpu time spent up to now is      526.5 secs

     total energy              =   -8788.71087019 Ry
     estimated scf accuracy    <       0.00111911 Ry

     iteration #  8     ecut=    45.00 Ry     beta= 0.15
     Davidson diagonalization with overlap
     ethr =  1.84E-07,  avg # of iterations =  4.0

     negative rho (up, down):  4.168E-05 0.000E+00

     total cpu time spent up to now is      595.2 secs

     total energy              =   -8788.71107775 Ry
     estimated scf accuracy    <       0.00149367 Ry

     iteration #  9     ecut=    45.00 Ry     beta= 0.15
     Davidson diagonalization with overlap
     ethr =  1.84E-07,  avg # of iterations =  3.0

     negative rho (up, down):  4.570E-07 0.000E+00

     total cpu time spent up to now is      660.0 secs

     total energy              =   -8788.71118253 Ry
     estimated scf accuracy    <       0.00010640 Ry

     iteration # 10     ecut=    45.00 Ry     beta= 0.15
     Davidson diagonalization with overlap
     ethr =  1.75E-08,  avg # of iterations = 11.0

     total cpu time spent up to now is      736.4 secs

     total energy              =   -8788.71121240 Ry
     estimated scf accuracy    <       0.00024382 Ry

     iteration # 11     ecut=    45.00 Ry     beta= 0.15
     Davidson diagonalization with overlap
     ethr =  1.75E-08,  avg # of iterations =  3.0

     total cpu time spent up to now is      800.7 secs

     total energy              =   -8788.71122483 Ry
     estimated scf accuracy    <       0.00001935 Ry

     iteration # 12     ecut=    45.00 Ry     beta= 0.15
     Davidson diagonalization with overlap
     ethr =  3.18E-09,  avg # of iterations =  5.0

     total cpu time spent up to now is      869.1 secs

     total energy              =   -8788.71122947 Ry
     estimated scf accuracy    <       0.00000121 Ry

     iteration # 13     ecut=    45.00 Ry     beta= 0.15
     Davidson diagonalization with overlap
     ethr =  1.99E-10,  avg # of iterations =  5.0

     total cpu time spent up to now is      933.2 secs

     total energy              =   -8788.71122916 Ry
     estimated scf accuracy    <       0.00000081 Ry

     iteration # 14     ecut=    45.00 Ry     beta= 0.15
     Davidson diagonalization with overlap
     ethr =  1.33E-10,  avg # of iterations =  6.0

     total cpu time spent up to now is     1005.4 secs

     total energy              =   -8788.71122937 Ry
     estimated scf accuracy    <       0.00000069 Ry

     iteration # 15     ecut=    45.00 Ry     beta= 0.15
     Davidson diagonalization with overlap
     ethr =  1.13E-10,  avg # of iterations =  6.0

     total cpu time spent up to now is     1073.6 secs

     total energy              =   -8788.71122951 Ry
     estimated scf accuracy    <       0.00000017 Ry

     iteration # 16     ecut=    45.00 Ry     beta= 0.15
     Davidson diagonalization with overlap
     ethr =  2.73E-11,  avg # of iterations =  6.0

     total cpu time spent up to now is     1137.8 secs

     End of self-consistent calculation

          k = 0.0000 0.0000 0.0000 (763121 PWs)   bands (ev):

  -109.6704-109.6649-109.6649-109.6649-109.6594-109.6594-109.6594-109.6540
  -108.7705-108.7705-108.7705-108.7705-108.7705-108.7705-108.7650-108.7650
  -108.7650-108.7650-108.7650-108.7650-108.7650-108.7650-108.7650-108.7650
  -108.7650-108.7650-108.7596-108.7596-108.7595-108.7595-108.7595-108.7595
   -61.0298 -61.0040 -61.0040 -61.0040 -60.9753 -60.9753 -60.9753 -60.9722
   -60.9722 -60.9605 -60.9605 -60.9605 -60.8866 -60.8706 -60.8706 -60.8706
   -60.8638 -60.8638 -60.8638 -60.8391 -60.8391 -60.8391 -60.8287 -60.8287
   -60.1121 -60.1121 -60.1119 -60.1119 -60.1119 -60.1115 -60.0899 -60.0889
   -60.0889 -60.0887 -60.0887 -60.0887 -60.0860 -60.0860 -60.0860 -60.0857
   -60.0857 -60.0857 -60.0855 -60.0855 -60.0855 -60.0855 -60.0855 -60.0855
   -60.0616 -60.0616 -60.0616 -60.0610 -60.0610 -60.0610 -60.0607 -60.0607
   -60.0607 -60.0604 -60.0604 -60.0604 -60.0574 -60.0573 -60.0573 -60.0573
   -60.0563 -60.0563 -60.0427 -60.0419 -60.0419 -60.0419 -60.0418 -60.0418
   -59.9784 -59.9784 -59.9783 -59.9783 -59.9783 -59.9780 -59.9506 -59.9506
   -59.9506 -59.9503 -59.9503 -59.9503 -59.9502 -59.9502 -59.9502 -59.9499
   -59.9499 -59.9499 -59.9184 -59.9181 -59.9181 -59.9181 -59.9179 -59.9179
   -11.2820 -10.2172 -10.2172 -10.2172  -9.8742  -9.8742  -9.6943  -9.6135
    -9.6135  -9.6135  -9.5649  -9.5649  -9.4827  -9.4827  -9.4827  -9.2640
    -9.2640  -9.2640  -9.0955  -9.0955  -9.0955  -8.7440  -8.7440  -8.7153
    -8.6906  -8.6906  -8.6906  -8.6439  -8.6439  -8.6439  -8.5557  -8.5557
    -8.5557  -8.4373  -8.4373  -8.4373  -8.3717  -8.3717  -8.3593  -8.3593
    -8.3593  -8.3375  -8.3375  -8.3375  -8.2981  -8.2881  -8.2881  -8.2881
    -8.2098  -8.1772  -8.1772  -8.1772  -8.1487  -8.1487  -8.1487  -8.1094
    -8.0944  -8.0944  -8.0944  -8.0720  -8.0720  -8.0650  -8.0650  -8.0650
    -8.0511  -8.0511  -8.0511  -8.0482  -8.0482  -8.0482  -8.0250  -8.0250
    -7.8394  -7.8394  -7.8043  -7.4805  -7.3921  -7.3921  -7.3921  -7.3400
    -7.3400  -7.3400  -7.3252  -7.3252  -7.2275  -7.2275  -7.2275  -7.1649
    -7.1649  -7.1386  -7.1386  -7.1386  -7.1134  -7.0959  -7.0959  -7.0959
    -7.0045  -7.0045  -7.0045  -6.9287  -6.9287  -6.9287  -6.8940  -6.8940
    -6.8940  -6.8589  -6.8589  -6.8589  -6.8378  -6.8378  -6.8378  -6.8127
    -6.8127  -6.8127  -6.6399  -6.6399  -6.4907  -6.4907  -6.4907  -6.3939
    -6.3939  -6.3939  -6.3651  -6.3651  -6.3651  -6.2954  -6.2954  -6.2954
    -6.2694  -6.2694  -6.2694  -6.2566  -6.2566  -6.2069  -6.1823  -6.1823
    -6.1823  -6.1440  -6.1440  -6.1440  -6.1347  -6.1347  -6.1347  -6.0120
    -5.9975  -5.9956  -5.9956  -5.9956  -5.9121  -5.9121  -5.9121  -5.8900
    -5.8870  -5.8870  -5.8518  -5.8518  -5.6743  -5.6743  -5.5979  -5.5979
    -5.5979  -5.5458  -5.5458  -5.5458  -5.4410  -5.3422  -5.3422  -5.3422
    -5.1686  -5.1686  -4.8802  -4.8802  -4.8802  -4.7446  -4.7446  -4.7446
    -4.3880  -3.9525  -3.9525  -3.9525  -3.6820  -3.6820

     highest occupied, lowest unoccupied level (ev):    -4.7446   -4.3880

!    total energy              =   -8788.71122951 Ry
     estimated scf accuracy    <          6.8E-09 Ry

     The total energy is the sum of the following terms:
     one-electron contribution =  -54729.39876434 Ry
     hartree contribution      =   27113.41434144 Ry
     xc contribution           =    -801.37040605 Ry
     ewald contribution        =   19628.64359944 Ry

     convergence has been achieved in  16 iterations

     Forces acting on atoms (cartesian axes, Ry/au):

     atom    1 type  1   force =    -0.01033953   -0.01033953    0.01969433
     atom    2 type  1   force =     0.01033953   -0.01033953    0.01969433
     atom    3 type  1   force =    -0.01033953    0.01033953    0.01969433
     atom    4 type  1   force =     0.01033953    0.01033953    0.01969433
     atom    5 type  1   force =    -0.01033953    0.01969433    0.01033953
     atom    6 type  1   force =    -0.01033953   -0.01969433    0.01033953
     atom    7 type  1   force =     0.01033953   -0.01969433    0.01033953
     atom    8 type  1   force =     0.00501031    0.00501031   -0.00501031
     atom    9 type  1   force =    -0.00501031    0.00501031   -0.00501031
     atom   10 type  1   force =     0.01969433   -0.01033953    0.01033953
     atom   11 type  1   force =    -0.01969433   -0.01033953    0.01033953
     atom   12 type  1   force =    -0.00501031   -0.00501031   -0.00501031
     atom   13 type  1   force =     0.00501031   -0.00501031   -0.00501031
     atom   14 type  1   force =    -0.01969433    0.01033953    0.01033953
     atom   15 type  1   force =     0.01033953    0.01969433    0.01033953
     atom   16 type  1   force =     0.01969433    0.01033953    0.01033953
     atom   17 type  1   force =     0.01033953   -0.01969433   -0.01033953
     atom   18 type  1   force =    -0.00501031   -0.00501031    0.00501031
     atom   19 type  1   force =     0.01969433    0.01033953   -0.01033953
     atom   20 type  1   force =    -0.01033953   -0.01969433   -0.01033953
     atom   21 type  1   force =     0.00501031   -0.00501031    0.00501031
     atom   22 type  1   force =     0.01969433   -0.01033953   -0.01033953
     atom   23 type  1   force =    -0.01033953    0.01969433   -0.01033953
     atom   24 type  1   force =    -0.00501031    0.00501031    0.00501031
     atom   25 type  1   force =    -0.01969433    0.01033953   -0.01033953
     atom   26 type  1   force =     0.00501031    0.00501031    0.00501031
     atom   27 type  1   force =     0.01033953    0.01969433   -0.01033953
     atom   28 type  1   force =    -0.01969433   -0.01033953   -0.01033953
     atom   29 type  1   force =     0.01033953    0.01033953   -0.01969433
     atom   30 type  1   force =     0.01033953   -0.01033953   -0.01969433
     atom   31 type  1   force =    -0.01033953   -0.01033953   -0.01969433
     atom   32 type  1   force =    -0.01033953    0.01033953   -0.01969433
     The non-local contrib.  to forces
     atom    1 type  1   force =     0.14779073    0.14779073   -0.14960404
     atom    2 type  1   force =    -0.14779073    0.14779073   -0.14960404
     atom    3 type  1   force =     0.14779073   -0.14779073   -0.14960404
     atom    4 type  1   force =    -0.14779073   -0.14779073   -0.14960404
     atom    5 type  1   force =     0.14779073   -0.14960404   -0.14779073
     atom    6 type  1   force =     0.14779073    0.14960404   -0.14779073
     atom    7 type  1   force =    -0.14779073    0.14960404   -0.14779073
     atom    8 type  1   force =    -0.03193508   -0.03193508    0.03193508
     atom    9 type  1   force =     0.03193508   -0.03193508    0.03193508
     atom   10 type  1   force =    -0.14960404    0.14779073   -0.14779073
     atom   11 type  1   force =     0.14960404    0.14779073   -0.14779073
     atom   12 type  1   force =     0.03193508    0.03193508    0.03193508
     atom   13 type  1   force =    -0.03193508    0.03193508    0.03193508
     atom   14 type  1   force =     0.14960404   -0.14779073   -0.14779073
     atom   15 type  1   force =    -0.14779073   -0.14960404   -0.14779073
     atom   16 type  1   force =    -0.14960404   -0.14779073   -0.14779073
     atom   17 type  1   force =    -0.14779073    0.14960404    0.14779073
     atom   18 type  1   force =     0.03193508    0.03193508   -0.03193508
     atom   19 type  1   force =    -0.14960404   -0.14779073    0.14779073
     atom   20 type  1   force =     0.14779073    0.14960404    0.14779073
     atom   21 type  1   force =    -0.03193508    0.03193508   -0.03193508
     atom   22 type  1   force =    -0.14960404    0.14779073    0.14779073
     atom   23 type  1   force =     0.14779073   -0.14960404    0.14779073
     atom   24 type  1   force =     0.03193508   -0.03193508   -0.03193508
     atom   25 type  1   force =     0.14960404   -0.14779073    0.14779073
     atom   26 type  1   force =    -0.03193508   -0.03193508   -0.03193508
     atom   27 type  1   force =    -0.14779073   -0.14960404    0.14779073
     atom   28 type  1   force =     0.14960404    0.14779073    0.14779073
     atom   29 type  1   force =    -0.14779073   -0.14779073    0.14960404
     atom   30 type  1   force =    -0.14779073    0.14779073    0.14960404
     atom   31 type  1   force =     0.14779073    0.14779073    0.14960404
     atom   32 type  1   force =     0.14779073   -0.14779073    0.14960404
     The ionic contribution  to forces
     atom    1 type  1   force =    61.10008326   61.10008326 -144.36931002
     atom    2 type  1   force =   -61.10008336   61.10008322 -144.36930984
     atom    3 type  1   force =    61.10008322  -61.10008336 -144.36930984
     atom    4 type  1   force =   -61.10008332  -61.10008332 -144.36930967
     atom    5 type  1   force =    61.10008322 -144.36930984  -61.10008336
     atom    6 type  1   force =    61.10008339  144.36931091  -61.10008354
     atom    7 type  1   force =   -61.10008350  144.36931073  -61.10008350
     atom    8 type  1   force =    58.05687468   58.05687468  -58.05687569
     atom    9 type  1   force =   -58.05687553   58.05687452  -58.05687553
     atom   10 type  1   force =  -144.36930984   61.10008322  -61.10008336
     atom   11 type  1   force =   144.36931091   61.10008339  -61.10008354
     atom   12 type  1   force =   -58.05687537  -58.05687537  -58.05687537
     atom   13 type  1   force =    58.05687452  -58.05687553  -58.05687553
     atom   14 type  1   force =   144.36931073  -61.10008350  -61.10008350
     atom   15 type  1   force =   -61.10008332 -144.36930967  -61.10008332
     atom   16 type  1   force =  -144.36930967  -61.10008332  -61.10008332
     atom   17 type  1   force =   -61.10008354  144.36931091   61.10008339
     atom   18 type  1   force =   -58.05687553  -58.05687553   58.05687452
     atom   19 type  1   force =  -144.36930984  -61.10008336   61.10008322
     atom   20 type  1   force =    61.10008343  144.36931108   61.10008343
     atom   21 type  1   force =    58.05687468  -58.05687569   58.05687468
     atom   22 type  1   force =  -144.36931002   61.10008326   61.10008326
     atom   23 type  1   force =    61.10008326 -144.36931002   61.10008326
     atom   24 type  1   force =   -58.05687569   58.05687468   58.05687468
     atom   25 type  1   force =   144.36931091  -61.10008354   61.10008339
     atom   26 type  1   force =    58.05687484   58.05687484   58.05687484
     atom   27 type  1   force =   -61.10008336 -144.36930984   61.10008322
     atom   28 type  1   force =   144.36931108   61.10008343   61.10008343
     atom   29 type  1   force =   -61.10008350  -61.10008350  144.36931073
     atom   30 type  1   force =   -61.10008354   61.10008339  144.36931091
     atom   31 type  1   force =    61.10008343   61.10008343  144.36931108
     atom   32 type  1   force =    61.10008339  -61.10008354  144.36931091
     The local contribution  to forces
     atom    1 type  1   force =   -61.25811765  -61.25811765  144.53861453
     atom    2 type  1   force =    61.25811765  -61.25811765  144.53861453
     atom    3 type  1   force =   -61.25811765   61.25811765  144.53861453
     atom    4 type  1   force =    61.25811765   61.25811765  144.53861453
     atom    5 type  1   force =   -61.25811765  144.53861453   61.25811765
     atom    6 type  1   force =   -61.25811784 -144.53860483   61.25811784
     atom    7 type  1   force =    61.25811784 -144.53860483   61.25811784
     atom    8 type  1   force =   -58.01995656  -58.01995656   58.01995656
     atom    9 type  1   force =    58.01995656  -58.01995656   58.01995656
     atom   10 type  1   force =   144.53861453  -61.25811765   61.25811765
     atom   11 type  1   force =  -144.53860483  -61.25811784   61.25811784
     atom   12 type  1   force =    58.01995656   58.01995656   58.01995656
     atom   13 type  1   force =   -58.01995656   58.01995656   58.01995656
     atom   14 type  1   force =  -144.53860483   61.25811784   61.25811784
     atom   15 type  1   force =    61.25811765  144.53861453   61.25811765
     atom   16 type  1   force =   144.53861453   61.25811765   61.25811765
     atom   17 type  1   force =    61.25811784 -144.53860483  -61.25811784
     atom   18 type  1   force =    58.01995656   58.01995656  -58.01995656
     atom   19 type  1   force =   144.53861453   61.25811765  -61.25811765
     atom   20 type  1   force =   -61.25811784 -144.53860483  -61.25811784
     atom   21 type  1   force =   -58.01995656   58.01995656  -58.01995656
     atom   22 type  1   force =   144.53861453  -61.25811765  -61.25811765
     atom   23 type  1   force =   -61.25811765  144.53861453  -61.25811765
     atom   24 type  1   force =    58.01995656  -58.01995656  -58.01995656
     atom   25 type  1   force =  -144.53860483   61.25811784  -61.25811784
     atom   26 type  1   force =   -58.01995656  -58.01995656  -58.01995656
     atom   27 type  1   force =    61.25811765  144.53861453  -61.25811765
     atom   28 type  1   force =  -144.53860483  -61.25811784  -61.25811784
     atom   29 type  1   force =    61.25811784   61.25811784 -144.53860483
     atom   30 type  1   force =    61.25811784  -61.25811784 -144.53860483
     atom   31 type  1   force =   -61.25811784  -61.25811784 -144.53860483
     atom   32 type  1   force =   -61.25811784   61.25811784 -144.53860483
     The core correction contribution to forces
     atom    1 type  1   force =     0.00000000    0.00000000    0.00000000
     atom    2 type  1   force =     0.00000000    0.00000000    0.00000000
     atom    3 type  1   force =     0.00000000    0.00000000    0.00000000
     atom    4 type  1   force =     0.00000000    0.00000000    0.00000000
     atom    5 type  1   force =     0.00000000    0.00000000    0.00000000
     atom    6 type  1   force =     0.00000000    0.00000000    0.00000000
     atom    7 type  1   force =     0.00000000    0.00000000    0.00000000
     atom    8 type  1   force =     0.00000000    0.00000000    0.00000000
     atom    9 type  1   force =     0.00000000    0.00000000    0.00000000
     atom   10 type  1   force =     0.00000000    0.00000000    0.00000000
     atom   11 type  1   force =     0.00000000    0.00000000    0.00000000
     atom   12 type  1   force =     0.00000000    0.00000000    0.00000000
     atom   13 type  1   force =     0.00000000    0.00000000    0.00000000
     atom   14 type  1   force =     0.00000000    0.00000000    0.00000000
     atom   15 type  1   force =     0.00000000    0.00000000    0.00000000
     atom   16 type  1   force =     0.00000000    0.00000000    0.00000000
     atom   17 type  1   force =     0.00000000    0.00000000    0.00000000
     atom   18 type  1   force =     0.00000000    0.00000000    0.00000000
     atom   19 type  1   force =     0.00000000    0.00000000    0.00000000
     atom   20 type  1   force =     0.00000000    0.00000000    0.00000000
     atom   21 type  1   force =     0.00000000    0.00000000    0.00000000
     atom   22 type  1   force =     0.00000000    0.00000000    0.00000000
     atom   23 type  1   force =     0.00000000    0.00000000    0.00000000
     atom   24 type  1   force =     0.00000000    0.00000000    0.00000000
     atom   25 type  1   force =     0.00000000    0.00000000    0.00000000
     atom   26 type  1   force =     0.00000000    0.00000000    0.00000000
     atom   27 type  1   force =     0.00000000    0.00000000    0.00000000
     atom   28 type  1   force =     0.00000000    0.00000000    0.00000000
     atom   29 type  1   force =     0.00000000    0.00000000    0.00000000
     atom   30 type  1   force =     0.00000000    0.00000000    0.00000000
     atom   31 type  1   force =     0.00000000    0.00000000    0.00000000
     atom   32 type  1   force =     0.00000000    0.00000000    0.00000000
     The Hubbard contrib.    to forces
     atom    1 type  1   force =     0.00000000    0.00000000    0.00000000
     atom    2 type  1   force =     0.00000000    0.00000000    0.00000000
     atom    3 type  1   force =     0.00000000    0.00000000    0.00000000
     atom    4 type  1   force =     0.00000000    0.00000000    0.00000000
     atom    5 type  1   force =     0.00000000    0.00000000    0.00000000
     atom    6 type  1   force =     0.00000000    0.00000000    0.00000000
     atom    7 type  1   force =     0.00000000    0.00000000    0.00000000
     atom    8 type  1   force =     0.00000000    0.00000000    0.00000000
     atom    9 type  1   force =     0.00000000    0.00000000    0.00000000
     atom   10 type  1   force =     0.00000000    0.00000000    0.00000000
     atom   11 type  1   force =     0.00000000    0.00000000    0.00000000
     atom   12 type  1   force =     0.00000000    0.00000000    0.00000000
     atom   13 type  1   force =     0.00000000    0.00000000    0.00000000
     atom   14 type  1   force =     0.00000000    0.00000000    0.00000000
     atom   15 type  1   force =     0.00000000    0.00000000    0.00000000
     atom   16 type  1   force =     0.00000000    0.00000000    0.00000000
     atom   17 type  1   force =     0.00000000    0.00000000    0.00000000
     atom   18 type  1   force =     0.00000000    0.00000000    0.00000000
     atom   19 type  1   force =     0.00000000    0.00000000    0.00000000
     atom   20 type  1   force =     0.00000000    0.00000000    0.00000000
     atom   21 type  1   force =     0.00000000    0.00000000    0.00000000
     atom   22 type  1   force =     0.00000000    0.00000000    0.00000000
     atom   23 type  1   force =     0.00000000    0.00000000    0.00000000
     atom   24 type  1   force =     0.00000000    0.00000000    0.00000000
     atom   25 type  1   force =     0.00000000    0.00000000    0.00000000
     atom   26 type  1   force =     0.00000000    0.00000000    0.00000000
     atom   27 type  1   force =     0.00000000    0.00000000    0.00000000
     atom   28 type  1   force =     0.00000000    0.00000000    0.00000000
     atom   29 type  1   force =     0.00000000    0.00000000    0.00000000
     atom   30 type  1   force =     0.00000000    0.00000000    0.00000000
     atom   31 type  1   force =     0.00000000    0.00000000    0.00000000
     atom   32 type  1   force =     0.00000000    0.00000000    0.00000000
     The SCF correction term to forces
     atom    1 type  1   force =    -0.00009590   -0.00009590   -0.00000094
     atom    2 type  1   force =     0.00009590   -0.00009590   -0.00000094
     atom    3 type  1   force =    -0.00009590    0.00009590   -0.00000094
     atom    4 type  1   force =     0.00009590    0.00009590   -0.00000094
     atom    5 type  1   force =    -0.00009590   -0.00000094    0.00009590
     atom    6 type  1   force =    -0.00009590    0.00000094    0.00009590
     atom    7 type  1   force =     0.00009590    0.00000094    0.00009590
     atom    8 type  1   force =     0.00002684    0.00002684   -0.00002684
     atom    9 type  1   force =    -0.00002684    0.00002684   -0.00002684
     atom   10 type  1   force =    -0.00000094   -0.00009590    0.00009590
     atom   11 type  1   force =     0.00000094   -0.00009590    0.00009590
     atom   12 type  1   force =    -0.00002684   -0.00002684   -0.00002684
     atom   13 type  1   force =     0.00002684   -0.00002684   -0.00002684
     atom   14 type  1   force =     0.00000094    0.00009590    0.00009590
     atom   15 type  1   force =     0.00009590   -0.00000094    0.00009590
     atom   16 type  1   force =    -0.00000094    0.00009590    0.00009590
     atom   17 type  1   force =     0.00009590    0.00000094   -0.00009590
     atom   18 type  1   force =    -0.00002684   -0.00002684    0.00002684
     atom   19 type  1   force =    -0.00000094    0.00009590   -0.00009590
     atom   20 type  1   force =    -0.00009590    0.00000094   -0.00009590
     atom   21 type  1   force =     0.00002684   -0.00002684    0.00002684
     atom   22 type  1   force =    -0.00000094   -0.00009590   -0.00009590
     atom   23 type  1   force =    -0.00009590   -0.00000094   -0.00009590
     atom   24 type  1   force =    -0.00002684    0.00002684    0.00002684
     atom   25 type  1   force =     0.00000094    0.00009590   -0.00009590
     atom   26 type  1   force =     0.00002684    0.00002684    0.00002684
     atom   27 type  1   force =     0.00009590   -0.00000094   -0.00009590
     atom   28 type  1   force =     0.00000094   -0.00009590   -0.00009590
     atom   29 type  1   force =     0.00009590    0.00009590    0.00000094
     atom   30 type  1   force =     0.00009590   -0.00009590    0.00000094
     atom   31 type  1   force =    -0.00009590   -0.00009590    0.00000094
     atom   32 type  1   force =    -0.00009590    0.00009590    0.00000094

     Total force =     0.122649     Total SCF correction =     0.000677


     Computing stress (Cartesian axis) and pressure

          total   stress  (Ry/bohr**3)                   (kbar)     P=       -1.71
  -0.00001160   0.00000000   0.00000000           -1.71        0.00        0.00
   0.00000000  -0.00001160   0.00000000            0.00       -1.71        0.00
   0.00000000   0.00000000  -0.00001160            0.00        0.00       -1.71


     Writing all to output data dir ./work/AuDots.save/
 
     init_run     :     21.90s CPU     22.69s WALL (       1 calls)
     electrons    :   1106.16s CPU   1115.38s WALL (       1 calls)
     forces       :     11.41s CPU     11.67s WALL (       1 calls)
     stress       :    288.82s CPU    314.04s WALL (       1 calls)

     Called by init_run:
     wfcinit      :     17.30s CPU     17.86s WALL (       1 calls)
     potinit      :      0.51s CPU      0.58s WALL (       1 calls)
     hinit0       :      0.28s CPU      0.34s WALL (       1 calls)

     Called by electrons:
     c_bands      :    987.55s CPU    995.49s WALL (      17 calls)
     sum_band     :    108.80s CPU    109.30s WALL (      17 calls)
     v_of_rho     :      6.74s CPU      7.29s WALL (      17 calls)
     mix_rho      :      3.05s CPU      3.14s WALL (      17 calls)

     Called by c_bands:
     init_us_2    :      8.02s CPU      8.23s WALL (      35 calls)
     init_us_2:cp :      8.02s CPU      8.23s WALL (      35 calls)
     cegterg      :    842.54s CPU    850.44s WALL (      17 calls)

     Called by *egterg:
     cdiaghg      :     11.26s CPU     12.03s WALL (      88 calls)
     h_psi        :    618.90s CPU    622.97s WALL (      90 calls)
     g_psi        :      1.58s CPU      1.58s WALL (      72 calls)

     Called by h_psi:
     h_psi:calbec :    111.92s CPU    112.44s WALL (      90 calls)
     vloc_psi     :    391.39s CPU    392.84s WALL (      90 calls)
     add_vuspsi   :    112.53s CPU    112.55s WALL (      90 calls)

     General routines
     calbec       :    124.45s CPU    125.02s WALL (      95 calls)
     fft          :      4.34s CPU      5.04s WALL (     178 calls)
     ffts         :      0.36s CPU      0.39s WALL (      17 calls)
     fftw         :    327.10s CPU    328.62s WALL (   32164 calls)
 
     Parallel routines
 
     PWSCF        :  23m50.67s CPU  24m29.57s WALL

 
   This run was terminated on:  13: 6:57   9Oct2023            

=------------------------------------------------------------------------------=
   JOB DONE.
=------------------------------------------------------------------------------=
