
     Program PWSCF v.7.2 starts on  9Oct2023 at 13: 6:58 

     This program is part of the open-source Quantum ESPRESSO suite
     for quantum simulation of materials; please cite
         "P. Giannozzi et al., J. Phys.:Condens. Matter 21 395502 (2009);
         "P. Giannozzi et al., J. Phys.:Condens. Matter 29 465901 (2017);
         "P. Giannozzi et al., J. Chem. Phys. 152 154105 (2020);
          URL http://www.quantum-espresso.org", 
     in publications or presentations arising from this work. More details at
     http://www.quantum-espresso.org/quote

     Parallel version (MPI), running on    32 processors

     MPI processes distributed on     1 nodes
     161398 MiB available memory on the printing compute node when the environment starts
 
     Waiting for input...
     Reading input from standard input

     Current dimensions of program PWSCF are:
     Max number of different atomic species (ntypx) = 10
     Max number of k-points (npk) =  40000
     Max angular momentum in pseudopotentials (lmaxx) =  4

     Atomic positions and unit cell read from directory:
     ./work/AuDots.save/
 
 
     R & G space division:  proc/nbgrp/npool/nimage =      32
     Subspace diagonalization in iterative solution of the eigenvalue problem:
     one sub-group per band group will be used
     custom distributed-memory algorithm (size of sub-group:  3*  3 procs)

 
     Parallelization info
     --------------------
     sticks:   dense  smooth     PW     G-vecs:    dense   smooth      PW
     Min        1262    1262    325               190812   190812   24945
     Max        1263    1263    326               190817   190817   24950
     Sum       40413   40413  10405              6106079  6106079  798295
 
     Using Slab Decomposition
 


     bravais-lattice index     =            0
     lattice parameter (alat)  =      53.0972  a.u.
     unit-cell volume          =  149697.4655 (a.u.)^3
     number of atoms/cell      =           32
     number of atomic types    =            1
     number of electrons       =       608.00
     number of Kohn-Sham states=          310
     kinetic-energy cutoff     =      45.0000  Ry
     charge density cutoff     =     180.0000  Ry
     Exchange-correlation= PBESOL
                           (   1   4  10   8   0   0   0)

     celldm(1)=  53.097183  celldm(2)=   0.000000  celldm(3)=   0.000000
     celldm(4)=   0.000000  celldm(5)=   0.000000  celldm(6)=   0.000000

     crystal axes: (cart. coord. in units of alat)
               a(1) = (   1.000000   0.000000   0.000000 )  
               a(2) = (   0.000000   1.000000   0.000000 )  
               a(3) = (   0.000000   0.000000   1.000000 )  

     reciprocal axes: (cart. coord. in units 2 pi/alat)
               b(1) = (  1.000000  0.000000  0.000000 )  
               b(2) = (  0.000000  1.000000  0.000000 )  
               b(3) = (  0.000000  0.000000  1.000000 )  


     PseudoPot. # 1 for Au read from file:
     ../pseudo/Au_ONCV_PBEsol-1.0.upf
     MD5 check sum: 107326c382cdbc7cf544f5ac04d81467
     Pseudo is Norm-conserving, Zval = 19.0
     Generated using ONCVPSP code by D. R. Hamann
     Using radial grid of 1262 points,  8 beta functions with: 
                l(1) =   0
                l(2) =   0
                l(3) =   1
                l(4) =   1
                l(5) =   2
                l(6) =   2
                l(7) =   3
                l(8) =   3

     atomic species   valence    mass     pseudopotential
        Au            19.00   196.96657     Au( 1.00)

     No symmetry found


                                    s                        frac. trans.

      isym =  1     identity                                     

 cryst.   s( 1) = (     1          0          0      )
                  (     0          1          0      )
                  (     0          0          1      )

 cart.    s( 1) = (  1.0000000  0.0000000  0.0000000 )
                  (  0.0000000  1.0000000  0.0000000 )
                  (  0.0000000  0.0000000  1.0000000 )


   Cartesian axes

     site n.     atom                  positions (alat units)
         1           Au  tau(   1) = (   0.5480335   0.5480335   0.3558995  )
         2           Au  tau(   2) = (   0.4519665   0.5480335   0.3558995  )
         3           Au  tau(   3) = (   0.5480335   0.4519665   0.3558995  )
         4           Au  tau(   4) = (   0.4519665   0.4519665   0.3558995  )
         5           Au  tau(   5) = (   0.5480335   0.3558995   0.4519665  )
         6           Au  tau(   6) = (   0.5480335   0.6441005   0.4519665  )
         7           Au  tau(   7) = (   0.4519665   0.6441005   0.4519665  )
         8           Au  tau(   8) = (   0.5480335   0.5480335   0.4519665  )
         9           Au  tau(   9) = (   0.4519665   0.5480335   0.4519665  )
        10           Au  tau(  10) = (   0.3558995   0.5480335   0.4519665  )
        11           Au  tau(  11) = (   0.6441005   0.5480335   0.4519665  )
        12           Au  tau(  12) = (   0.4519665   0.4519665   0.4519665  )
        13           Au  tau(  13) = (   0.5480335   0.4519665   0.4519665  )
        14           Au  tau(  14) = (   0.6441005   0.4519665   0.4519665  )
        15           Au  tau(  15) = (   0.4519665   0.3558995   0.4519665  )
        16           Au  tau(  16) = (   0.3558995   0.4519665   0.4519665  )
        17           Au  tau(  17) = (   0.4519665   0.6441005   0.5480335  )
        18           Au  tau(  18) = (   0.4519665   0.4519665   0.5480335  )
        19           Au  tau(  19) = (   0.3558995   0.4519665   0.5480335  )
        20           Au  tau(  20) = (   0.5480335   0.6441005   0.5480335  )
        21           Au  tau(  21) = (   0.5480335   0.4519665   0.5480335  )
        22           Au  tau(  22) = (   0.3558995   0.5480335   0.5480335  )
        23           Au  tau(  23) = (   0.5480335   0.3558995   0.5480335  )
        24           Au  tau(  24) = (   0.4519665   0.5480335   0.5480335  )
        25           Au  tau(  25) = (   0.6441005   0.4519665   0.5480335  )
        26           Au  tau(  26) = (   0.5480335   0.5480335   0.5480335  )
        27           Au  tau(  27) = (   0.4519665   0.3558995   0.5480335  )
        28           Au  tau(  28) = (   0.6441005   0.5480335   0.5480335  )
        29           Au  tau(  29) = (   0.4519665   0.4519665   0.6441005  )
        30           Au  tau(  30) = (   0.4519665   0.5480335   0.6441005  )
        31           Au  tau(  31) = (   0.5480335   0.5480335   0.6441005  )
        32           Au  tau(  32) = (   0.5480335   0.4519665   0.6441005  )

   Crystallographic axes

     site n.     atom                  positions (cryst. coord.)
         1           Au  tau(   1) = (  0.5480335  0.5480335  0.3558995  )
         2           Au  tau(   2) = (  0.4519665  0.5480335  0.3558995  )
         3           Au  tau(   3) = (  0.5480335  0.4519665  0.3558995  )
         4           Au  tau(   4) = (  0.4519665  0.4519665  0.3558995  )
         5           Au  tau(   5) = (  0.5480335  0.3558995  0.4519665  )
         6           Au  tau(   6) = (  0.5480335  0.6441005  0.4519665  )
         7           Au  tau(   7) = (  0.4519665  0.6441005  0.4519665  )
         8           Au  tau(   8) = (  0.5480335  0.5480335  0.4519665  )
         9           Au  tau(   9) = (  0.4519665  0.5480335  0.4519665  )
        10           Au  tau(  10) = (  0.3558995  0.5480335  0.4519665  )
        11           Au  tau(  11) = (  0.6441005  0.5480335  0.4519665  )
        12           Au  tau(  12) = (  0.4519665  0.4519665  0.4519665  )
        13           Au  tau(  13) = (  0.5480335  0.4519665  0.4519665  )
        14           Au  tau(  14) = (  0.6441005  0.4519665  0.4519665  )
        15           Au  tau(  15) = (  0.4519665  0.3558995  0.4519665  )
        16           Au  tau(  16) = (  0.3558995  0.4519665  0.4519665  )
        17           Au  tau(  17) = (  0.4519665  0.6441005  0.5480335  )
        18           Au  tau(  18) = (  0.4519665  0.4519665  0.5480335  )
        19           Au  tau(  19) = (  0.3558995  0.4519665  0.5480335  )
        20           Au  tau(  20) = (  0.5480335  0.6441005  0.5480335  )
        21           Au  tau(  21) = (  0.5480335  0.4519665  0.5480335  )
        22           Au  tau(  22) = (  0.3558995  0.5480335  0.5480335  )
        23           Au  tau(  23) = (  0.5480335  0.3558995  0.5480335  )
        24           Au  tau(  24) = (  0.4519665  0.5480335  0.5480335  )
        25           Au  tau(  25) = (  0.6441005  0.4519665  0.5480335  )
        26           Au  tau(  26) = (  0.5480335  0.5480335  0.5480335  )
        27           Au  tau(  27) = (  0.4519665  0.3558995  0.5480335  )
        28           Au  tau(  28) = (  0.6441005  0.5480335  0.5480335  )
        29           Au  tau(  29) = (  0.4519665  0.4519665  0.6441005  )
        30           Au  tau(  30) = (  0.4519665  0.5480335  0.6441005  )
        31           Au  tau(  31) = (  0.5480335  0.5480335  0.6441005  )
        32           Au  tau(  32) = (  0.5480335  0.4519665  0.6441005  )

     number of k points=     8
                       cart. coord. in units 2pi/alat
        k(    1) = (   0.0000000   0.0000000   0.0000000), wk =   0.2500000
        k(    2) = (   0.0000000   0.0000000  -0.5000000), wk =   0.2500000
        k(    3) = (   0.0000000  -0.5000000   0.0000000), wk =   0.2500000
        k(    4) = (   0.0000000  -0.5000000  -0.5000000), wk =   0.2500000
        k(    5) = (  -0.5000000   0.0000000   0.0000000), wk =   0.2500000
        k(    6) = (  -0.5000000   0.0000000  -0.5000000), wk =   0.2500000
        k(    7) = (  -0.5000000  -0.5000000   0.0000000), wk =   0.2500000
        k(    8) = (  -0.5000000  -0.5000000  -0.5000000), wk =   0.2500000

                       cryst. coord.
        k(    1) = (   0.0000000   0.0000000   0.0000000), wk =   0.2500000
        k(    2) = (   0.0000000   0.0000000  -0.5000000), wk =   0.2500000
        k(    3) = (   0.0000000  -0.5000000   0.0000000), wk =   0.2500000
        k(    4) = (   0.0000000  -0.5000000  -0.5000000), wk =   0.2500000
        k(    5) = (  -0.5000000   0.0000000   0.0000000), wk =   0.2500000
        k(    6) = (  -0.5000000   0.0000000  -0.5000000), wk =   0.2500000
        k(    7) = (  -0.5000000  -0.5000000   0.0000000), wk =   0.2500000
        k(    8) = (  -0.5000000  -0.5000000  -0.5000000), wk =   0.2500000

     Dense  grid:  6106079 G-vectors     FFT dimensions: ( 240, 240, 240)

     Dynamical RAM for                 wfc:     112.80 MB

     Dynamical RAM for     wfc (w. buffer):     112.80 MB

     Dynamical RAM for           str. fact:       2.91 MB

     Dynamical RAM for           local pot:       0.00 MB

     Dynamical RAM for          nlocal pot:     372.59 MB

     Dynamical RAM for                qrad:       2.59 MB

     Dynamical RAM for          rho,v,vnew:      19.28 MB

     Dynamical RAM for           G-vectors:      12.37 MB

     Dynamical RAM for          h,s,v(r/c):       0.49 MB

     Dynamical RAM for          <psi|beta>:       4.84 MB

     Dynamical RAM for      wfcinit/wfcrot:     235.22 MB

     Estimated static dynamical RAM per process >     545.95 MB

     Estimated max dynamical RAM per process >     781.16 MB

     Estimated total dynamical RAM >      24.41 GB

     The potential is recalculated from file :
     ./work/AuDots.save/charge-density

     Starting wfcs are  320 randomized atomic wfcs

     Band Structure Calculation
     CG style diagonalization

     Computing kpt #:     1  of     8
     total cpu time spent up to now is     4411.1 secs

     Computing kpt #:     2  of     8
     total cpu time spent up to now is     8823.7 secs

     Computing kpt #:     3  of     8
     total cpu time spent up to now is    13311.3 secs

     Computing kpt #:     4  of     8
     total cpu time spent up to now is    17811.7 secs

     Computing kpt #:     5  of     8
     total cpu time spent up to now is    22298.2 secs

     Computing kpt #:     6  of     8
     total cpu time spent up to now is    26711.8 secs

     Computing kpt #:     7  of     8
     total cpu time spent up to now is    31157.0 secs

     Computing kpt #:     8  of     8
     total cpu time spent up to now is    35622.4 secs

     ethr =  1.64E-12,  avg # of iterations = 45.9

     total cpu time spent up to now is    35622.4 secs

     End of band structure calculation

          k = 0.0000 0.0000 0.0000 (763121 PWs)   bands (ev):

  -109.6702-109.6647-109.6647-109.6647-109.6593-109.6593-109.6593-109.6538
  -108.7707-108.7707-108.7706-108.7706-108.7706-108.7706-108.7652-108.7652
  -108.7652-108.7652-108.7652-108.7652-108.7652-108.7652-108.7652-108.7652
  -108.7652-108.7652-108.7597-108.7597-108.7597-108.7597-108.7597-108.7597
   -61.0297 -61.0039 -61.0039 -61.0039 -60.9752 -60.9752 -60.9752 -60.9721
   -60.9721 -60.9604 -60.9604 -60.9604 -60.8865 -60.8705 -60.8705 -60.8705
   -60.8637 -60.8637 -60.8637 -60.8390 -60.8390 -60.8390 -60.8286 -60.8286
   -60.1122 -60.1122 -60.1120 -60.1120 -60.1120 -60.1117 -60.0900 -60.0890
   -60.0890 -60.0889 -60.0889 -60.0889 -60.0862 -60.0862 -60.0862 -60.0859
   -60.0859 -60.0859 -60.0857 -60.0857 -60.0857 -60.0856 -60.0856 -60.0856
   -60.0617 -60.0617 -60.0617 -60.0611 -60.0611 -60.0611 -60.0608 -60.0608
   -60.0608 -60.0605 -60.0605 -60.0605 -60.0575 -60.0574 -60.0574 -60.0574
   -60.0564 -60.0564 -60.0429 -60.0420 -60.0420 -60.0420 -60.0419 -60.0419
   -59.9786 -59.9786 -59.9784 -59.9784 -59.9784 -59.9781 -59.9507 -59.9507
   -59.9507 -59.9504 -59.9504 -59.9504 -59.9504 -59.9504 -59.9504 -59.9500
   -59.9500 -59.9500 -59.9186 -59.9182 -59.9182 -59.9182 -59.9180 -59.9180
   -11.2820 -10.2173 -10.2173 -10.2173  -9.8742  -9.8742  -9.6942  -9.6134
    -9.6134  -9.6134  -9.5650  -9.5650  -9.4827  -9.4827  -9.4827  -9.2640
    -9.2640  -9.2640  -9.0956  -9.0956  -9.0956  -8.7441  -8.7441  -8.7154
    -8.6907  -8.6907  -8.6907  -8.6439  -8.6439  -8.6439  -8.5557  -8.5557
    -8.5557  -8.4373  -8.4373  -8.4373  -8.3719  -8.3719  -8.3593  -8.3593
    -8.3593  -8.3376  -8.3376  -8.3376  -8.2982  -8.2882  -8.2882  -8.2882
    -8.2099  -8.1773  -8.1773  -8.1773  -8.1488  -8.1488  -8.1488  -8.1094
    -8.0945  -8.0945  -8.0945  -8.0720  -8.0720  -8.0651  -8.0651  -8.0651
    -8.0512  -8.0512  -8.0512  -8.0483  -8.0483  -8.0483  -8.0251  -8.0251
    -7.8395  -7.8395  -7.8044  -7.4807  -7.3922  -7.3922  -7.3922  -7.3401
    -7.3401  -7.3401  -7.3252  -7.3252  -7.2276  -7.2276  -7.2276  -7.1649
    -7.1649  -7.1387  -7.1387  -7.1387  -7.1135  -7.0960  -7.0960  -7.0960
    -7.0046  -7.0046  -7.0046  -6.9288  -6.9288  -6.9288  -6.8941  -6.8941
    -6.8941  -6.8589  -6.8589  -6.8589  -6.8379  -6.8379  -6.8379  -6.8128
    -6.8128  -6.8128  -6.6400  -6.6400  -6.4908  -6.4908  -6.4908  -6.3941
    -6.3941  -6.3941  -6.3652  -6.3652  -6.3652  -6.2954  -6.2954  -6.2954
    -6.2695  -6.2695  -6.2695  -6.2567  -6.2567  -6.2070  -6.1824  -6.1824
    -6.1824  -6.1441  -6.1441  -6.1441  -6.1347  -6.1347  -6.1347  -6.0121
    -5.9975  -5.9956  -5.9956  -5.9956  -5.9122  -5.9122  -5.9122  -5.8901
    -5.8871  -5.8871  -5.8519  -5.8519  -5.6743  -5.6743  -5.5980  -5.5980
    -5.5980  -5.5459  -5.5459  -5.5459  -5.4411  -5.3422  -5.3422  -5.3422
    -5.1686  -5.1686  -4.8803  -4.8803  -4.8803  -4.7447  -4.7447  -4.7447
    -4.3881  -3.9526  -3.9526  -3.9526  -3.6820  -3.6820

     occupation numbers 
     1.0000   1.0000   1.0000   1.0000   1.0000   1.0000   1.0000   1.0000
     1.0000   1.0000   1.0000   1.0000   1.0000   1.0000   1.0000   1.0000
     1.0000   1.0000   1.0000   1.0000   1.0000   1.0000   1.0000   1.0000
     1.0000   1.0000   1.0000   1.0000   1.0000   1.0000   1.0000   1.0000
     1.0000   1.0000   1.0000   1.0000   1.0000   1.0000   1.0000   1.0000
     1.0000   1.0000   1.0000   1.0000   1.0000   1.0000   1.0000   1.0000
     1.0000   1.0000   1.0000   1.0000   1.0000   1.0000   1.0000   1.0000
     1.0000   1.0000   1.0000   1.0000   1.0000   1.0000   1.0000   1.0000
     1.0000   1.0000   1.0000   1.0000   1.0000   1.0000   1.0000   1.0000
     1.0000   1.0000   1.0000   1.0000   1.0000   1.0000   1.0000   1.0000
     1.0000   1.0000   1.0000   1.0000   1.0000   1.0000   1.0000   1.0000
     1.0000   1.0000   1.0000   1.0000   1.0000   1.0000   1.0000   1.0000
     1.0000   1.0000   1.0000   1.0000   1.0000   1.0000   1.0000   1.0000
     1.0000   1.0000   1.0000   1.0000   1.0000   1.0000   1.0000   1.0000
     1.0000   1.0000   1.0000   1.0000   1.0000   1.0000   1.0000   1.0000
     1.0000   1.0000   1.0000   1.0000   1.0000   1.0000   1.0000   1.0000
     1.0000   1.0000   1.0000   1.0000   1.0000   1.0000   1.0000   1.0000
     1.0000   1.0000   1.0000   1.0000   1.0000   1.0000   1.0000   1.0000
     1.0000   1.0000   1.0000   1.0000   1.0000   1.0000   1.0000   1.0000
     1.0000   1.0000   1.0000   1.0000   1.0000   1.0000   1.0000   1.0000
     1.0000   1.0000   1.0000   1.0000   1.0000   1.0000   1.0000   1.0000
     1.0000   1.0000   1.0000   1.0000   1.0000   1.0000   1.0000   1.0000
     1.0000   1.0000   1.0000   1.0000   1.0000   1.0000   1.0000   1.0000
     1.0000   1.0000   1.0000   1.0000   1.0000   1.0000   1.0000   1.0000
     1.0000   1.0000   1.0000   1.0000   1.0000   1.0000   1.0000   1.0000
     1.0000   1.0000   1.0000   1.0000   1.0000   1.0000   1.0000   1.0000
     1.0000   1.0000   1.0000   1.0000   1.0000   1.0000   1.0000   1.0000
     1.0000   1.0000   1.0000   1.0000   1.0000   1.0000   1.0000   1.0000
     1.0000   1.0000   1.0000   1.0000   1.0000   1.0000   1.0000   1.0000
     1.0000   1.0000   1.0000   1.0000   1.0000   1.0000   1.0000   1.0000
     1.0000   1.0000   1.0000   1.0000   1.0000   1.0000   1.0000   1.0000
     1.0000   1.0000   1.0000   1.0000   1.0000   1.0000   1.0000   1.0000
     1.0000   1.0000   1.0000   1.0000   1.0000   1.0000   1.0000   1.0000
     1.0000   1.0000   1.0000   1.0000   1.0000   1.0000   1.0000   1.0000
     1.0000   1.0000   1.0000   1.0000   1.0000   1.0000   1.0000   1.0000
     1.0000   1.0000   1.0000   1.0000   1.0000   1.0000   1.0000   1.0000
     1.0000   1.0000   1.0000   1.0000   1.0000   1.0000   1.0000   1.0000
     1.0000   1.0000   1.0000   1.0000   1.0000   1.0000   1.0000   1.0000
     0.0000   0.0000   0.0000   0.0000   0.0000   0.0000

          k = 0.0000 0.0000-0.5000 (763074 PWs)   bands (ev):

  -109.6702-109.6647-109.6647-109.6647-109.6593-109.6593-109.6593-109.6538
  -108.7707-108.7707-108.7706-108.7706-108.7706-108.7706-108.7652-108.7652
  -108.7652-108.7652-108.7652-108.7652-108.7652-108.7652-108.7652-108.7652
  -108.7652-108.7652-108.7597-108.7597-108.7597-108.7597-108.7597-108.7597
   -61.0297 -61.0039 -61.0039 -61.0039 -60.9752 -60.9752 -60.9752 -60.9721
   -60.9721 -60.9604 -60.9604 -60.9604 -60.8865 -60.8705 -60.8705 -60.8705
   -60.8637 -60.8637 -60.8637 -60.8390 -60.8390 -60.8390 -60.8286 -60.8286
   -60.1122 -60.1122 -60.1120 -60.1120 -60.1120 -60.1117 -60.0900 -60.0890
   -60.0890 -60.0889 -60.0889 -60.0889 -60.0862 -60.0862 -60.0862 -60.0859
   -60.0859 -60.0859 -60.0857 -60.0857 -60.0857 -60.0856 -60.0856 -60.0856
   -60.0617 -60.0617 -60.0617 -60.0611 -60.0611 -60.0611 -60.0608 -60.0608
   -60.0608 -60.0605 -60.0605 -60.0605 -60.0575 -60.0574 -60.0574 -60.0574
   -60.0564 -60.0564 -60.0429 -60.0420 -60.0420 -60.0420 -60.0419 -60.0419
   -59.9786 -59.9786 -59.9784 -59.9784 -59.9784 -59.9781 -59.9507 -59.9507
   -59.9507 -59.9504 -59.9504 -59.9504 -59.9504 -59.9504 -59.9504 -59.9500
   -59.9500 -59.9500 -59.9186 -59.9182 -59.9182 -59.9182 -59.9180 -59.9180
   -11.2820 -10.2173 -10.2173 -10.2173  -9.8742  -9.8742  -9.6942  -9.6134
    -9.6134  -9.6134  -9.5650  -9.5650  -9.4827  -9.4827  -9.4827  -9.2640
    -9.2640  -9.2640  -9.0956  -9.0956  -9.0956  -8.7441  -8.7441  -8.7154
    -8.6907  -8.6907  -8.6907  -8.6439  -8.6439  -8.6439  -8.5557  -8.5557
    -8.5557  -8.4373  -8.4373  -8.4373  -8.3719  -8.3719  -8.3593  -8.3593
    -8.3593  -8.3376  -8.3376  -8.3376  -8.2982  -8.2882  -8.2882  -8.2882
    -8.2099  -8.1773  -8.1773  -8.1773  -8.1488  -8.1488  -8.1488  -8.1094
    -8.0945  -8.0945  -8.0945  -8.0720  -8.0720  -8.0651  -8.0651  -8.0651
    -8.0512  -8.0512  -8.0512  -8.0483  -8.0483  -8.0483  -8.0251  -8.0251
    -7.8395  -7.8395  -7.8044  -7.4807  -7.3922  -7.3922  -7.3922  -7.3401
    -7.3401  -7.3401  -7.3253  -7.3253  -7.2276  -7.2276  -7.2276  -7.1649
    -7.1649  -7.1387  -7.1387  -7.1387  -7.1135  -7.0960  -7.0960  -7.0960
    -7.0046  -7.0046  -7.0046  -6.9288  -6.9288  -6.9288  -6.8941  -6.8941
    -6.8941  -6.8589  -6.8589  -6.8589  -6.8379  -6.8379  -6.8379  -6.8129
    -6.8129  -6.8128  -6.6400  -6.6400  -6.4908  -6.4908  -6.4908  -6.3940
    -6.3940  -6.3940  -6.3651  -6.3651  -6.3651  -6.2954  -6.2954  -6.2954
    -6.2695  -6.2695  -6.2695  -6.2567  -6.2567  -6.2070  -6.1824  -6.1824
    -6.1824  -6.1441  -6.1441  -6.1441  -6.1347  -6.1347  -6.1347  -6.0120
    -5.9975  -5.9956  -5.9956  -5.9956  -5.9122  -5.9122  -5.9122  -5.8901
    -5.8871  -5.8871  -5.8519  -5.8519  -5.6743  -5.6743  -5.5980  -5.5980
    -5.5980  -5.5459  -5.5459  -5.5459  -5.4411  -5.3422  -5.3422  -5.3422
    -5.1686  -5.1685  -4.8803  -4.8803  -4.8803  -4.7447  -4.7447  -4.7447
    -4.3881  -3.9526  -3.9526  -3.9526  -3.6820  -3.6820

     occupation numbers 
     1.0000   1.0000   1.0000   1.0000   1.0000   1.0000   1.0000   1.0000
     1.0000   1.0000   1.0000   1.0000   1.0000   1.0000   1.0000   1.0000
     1.0000   1.0000   1.0000   1.0000   1.0000   1.0000   1.0000   1.0000
     1.0000   1.0000   1.0000   1.0000   1.0000   1.0000   1.0000   1.0000
     1.0000   1.0000   1.0000   1.0000   1.0000   1.0000   1.0000   1.0000
     1.0000   1.0000   1.0000   1.0000   1.0000   1.0000   1.0000   1.0000
     1.0000   1.0000   1.0000   1.0000   1.0000   1.0000   1.0000   1.0000
     1.0000   1.0000   1.0000   1.0000   1.0000   1.0000   1.0000   1.0000
     1.0000   1.0000   1.0000   1.0000   1.0000   1.0000   1.0000   1.0000
     1.0000   1.0000   1.0000   1.0000   1.0000   1.0000   1.0000   1.0000
     1.0000   1.0000   1.0000   1.0000   1.0000   1.0000   1.0000   1.0000
     1.0000   1.0000   1.0000   1.0000   1.0000   1.0000   1.0000   1.0000
     1.0000   1.0000   1.0000   1.0000   1.0000   1.0000   1.0000   1.0000
     1.0000   1.0000   1.0000   1.0000   1.0000   1.0000   1.0000   1.0000
     1.0000   1.0000   1.0000   1.0000   1.0000   1.0000   1.0000   1.0000
     1.0000   1.0000   1.0000   1.0000   1.0000   1.0000   1.0000   1.0000
     1.0000   1.0000   1.0000   1.0000   1.0000   1.0000   1.0000   1.0000
     1.0000   1.0000   1.0000   1.0000   1.0000   1.0000   1.0000   1.0000
     1.0000   1.0000   1.0000   1.0000   1.0000   1.0000   1.0000   1.0000
     1.0000   1.0000   1.0000   1.0000   1.0000   1.0000   1.0000   1.0000
     1.0000   1.0000   1.0000   1.0000   1.0000   1.0000   1.0000   1.0000
     1.0000   1.0000   1.0000   1.0000   1.0000   1.0000   1.0000   1.0000
     1.0000   1.0000   1.0000   1.0000   1.0000   1.0000   1.0000   1.0000
     1.0000   1.0000   1.0000   1.0000   1.0000   1.0000   1.0000   1.0000
     1.0000   1.0000   1.0000   1.0000   1.0000   1.0000   1.0000   1.0000
     1.0000   1.0000   1.0000   1.0000   1.0000   1.0000   1.0000   1.0000
     1.0000   1.0000   1.0000   1.0000   1.0000   1.0000   1.0000   1.0000
     1.0000   1.0000   1.0000   1.0000   1.0000   1.0000   1.0000   1.0000
     1.0000   1.0000   1.0000   1.0000   1.0000   1.0000   1.0000   1.0000
     1.0000   1.0000   1.0000   1.0000   1.0000   1.0000   1.0000   1.0000
     1.0000   1.0000   1.0000   1.0000   1.0000   1.0000   1.0000   1.0000
     1.0000   1.0000   1.0000   1.0000   1.0000   1.0000   1.0000   1.0000
     1.0000   1.0000   1.0000   1.0000   1.0000   1.0000   1.0000   1.0000
     1.0000   1.0000   1.0000   1.0000   1.0000   1.0000   1.0000   1.0000
     1.0000   1.0000   1.0000   1.0000   1.0000   1.0000   1.0000   1.0000
     1.0000   1.0000   1.0000   1.0000   1.0000   1.0000   1.0000   1.0000
     1.0000   1.0000   1.0000   1.0000   1.0000   1.0000   1.0000   1.0000
     1.0000   1.0000   1.0000   1.0000   1.0000   1.0000   1.0000   1.0000
     0.0000   0.0000   0.0000   0.0000   0.0000   0.0000

          k = 0.0000-0.5000 0.0000 (763074 PWs)   bands (ev):

  -109.6702-109.6647-109.6647-109.6647-109.6593-109.6593-109.6593-109.6538
  -108.7707-108.7707-108.7706-108.7706-108.7706-108.7706-108.7652-108.7652
  -108.7652-108.7652-108.7652-108.7652-108.7652-108.7652-108.7652-108.7652
  -108.7652-108.7652-108.7597-108.7597-108.7597-108.7597-108.7597-108.7597
   -61.0297 -61.0039 -61.0039 -61.0039 -60.9752 -60.9752 -60.9752 -60.9721
   -60.9721 -60.9604 -60.9604 -60.9604 -60.8865 -60.8705 -60.8705 -60.8705
   -60.8637 -60.8637 -60.8637 -60.8390 -60.8390 -60.8390 -60.8286 -60.8286
   -60.1122 -60.1122 -60.1120 -60.1120 -60.1120 -60.1117 -60.0900 -60.0890
   -60.0890 -60.0889 -60.0889 -60.0889 -60.0862 -60.0862 -60.0862 -60.0859
   -60.0859 -60.0859 -60.0857 -60.0857 -60.0857 -60.0856 -60.0856 -60.0856
   -60.0617 -60.0617 -60.0617 -60.0611 -60.0611 -60.0611 -60.0608 -60.0608
   -60.0608 -60.0605 -60.0605 -60.0605 -60.0575 -60.0574 -60.0574 -60.0574
   -60.0564 -60.0564 -60.0429 -60.0420 -60.0420 -60.0420 -60.0419 -60.0419
   -59.9786 -59.9786 -59.9784 -59.9784 -59.9784 -59.9781 -59.9507 -59.9507
   -59.9507 -59.9504 -59.9504 -59.9504 -59.9504 -59.9504 -59.9504 -59.9500
   -59.9500 -59.9500 -59.9186 -59.9182 -59.9182 -59.9182 -59.9180 -59.9180
   -11.2820 -10.2173 -10.2173 -10.2173  -9.8742  -9.8742  -9.6942  -9.6134
    -9.6134  -9.6134  -9.5650  -9.5650  -9.4827  -9.4827  -9.4827  -9.2640
    -9.2640  -9.2640  -9.0956  -9.0956  -9.0956  -8.7441  -8.7441  -8.7154
    -8.6907  -8.6907  -8.6907  -8.6439  -8.6439  -8.6439  -8.5557  -8.5557
    -8.5557  -8.4373  -8.4373  -8.4373  -8.3719  -8.3719  -8.3593  -8.3593
    -8.3593  -8.3376  -8.3376  -8.3376  -8.2982  -8.2882  -8.2882  -8.2882
    -8.2099  -8.1773  -8.1773  -8.1773  -8.1488  -8.1488  -8.1488  -8.1094
    -8.0945  -8.0945  -8.0945  -8.0720  -8.0720  -8.0651  -8.0651  -8.0651
    -8.0512  -8.0512  -8.0512  -8.0483  -8.0483  -8.0483  -8.0251  -8.0251
    -7.8395  -7.8395  -7.8044  -7.4807  -7.3922  -7.3922  -7.3922  -7.3401
    -7.3401  -7.3401  -7.3253  -7.3253  -7.2276  -7.2276  -7.2276  -7.1649
    -7.1649  -7.1387  -7.1387  -7.1387  -7.1135  -7.0960  -7.0960  -7.0960
    -7.0046  -7.0046  -7.0046  -6.9288  -6.9288  -6.9288  -6.8941  -6.8941
    -6.8941  -6.8589  -6.8589  -6.8589  -6.8379  -6.8379  -6.8379  -6.8129
    -6.8129  -6.8128  -6.6400  -6.6400  -6.4908  -6.4908  -6.4908  -6.3940
    -6.3940  -6.3940  -6.3651  -6.3651  -6.3651  -6.2954  -6.2954  -6.2954
    -6.2695  -6.2695  -6.2695  -6.2567  -6.2567  -6.2070  -6.1824  -6.1824
    -6.1824  -6.1441  -6.1441  -6.1441  -6.1347  -6.1347  -6.1347  -6.0120
    -5.9975  -5.9956  -5.9956  -5.9956  -5.9122  -5.9122  -5.9122  -5.8901
    -5.8871  -5.8871  -5.8519  -5.8519  -5.6743  -5.6743  -5.5980  -5.5980
    -5.5980  -5.5459  -5.5459  -5.5459  -5.4411  -5.3422  -5.3422  -5.3422
    -5.1686  -5.1685  -4.8803  -4.8803  -4.8803  -4.7447  -4.7447  -4.7447
    -4.3881  -3.9526  -3.9526  -3.9526  -3.6820  -3.6820

     occupation numbers 
     1.0000   1.0000   1.0000   1.0000   1.0000   1.0000   1.0000   1.0000
     1.0000   1.0000   1.0000   1.0000   1.0000   1.0000   1.0000   1.0000
     1.0000   1.0000   1.0000   1.0000   1.0000   1.0000   1.0000   1.0000
     1.0000   1.0000   1.0000   1.0000   1.0000   1.0000   1.0000   1.0000
     1.0000   1.0000   1.0000   1.0000   1.0000   1.0000   1.0000   1.0000
     1.0000   1.0000   1.0000   1.0000   1.0000   1.0000   1.0000   1.0000
     1.0000   1.0000   1.0000   1.0000   1.0000   1.0000   1.0000   1.0000
     1.0000   1.0000   1.0000   1.0000   1.0000   1.0000   1.0000   1.0000
     1.0000   1.0000   1.0000   1.0000   1.0000   1.0000   1.0000   1.0000
     1.0000   1.0000   1.0000   1.0000   1.0000   1.0000   1.0000   1.0000
     1.0000   1.0000   1.0000   1.0000   1.0000   1.0000   1.0000   1.0000
     1.0000   1.0000   1.0000   1.0000   1.0000   1.0000   1.0000   1.0000
     1.0000   1.0000   1.0000   1.0000   1.0000   1.0000   1.0000   1.0000
     1.0000   1.0000   1.0000   1.0000   1.0000   1.0000   1.0000   1.0000
     1.0000   1.0000   1.0000   1.0000   1.0000   1.0000   1.0000   1.0000
     1.0000   1.0000   1.0000   1.0000   1.0000   1.0000   1.0000   1.0000
     1.0000   1.0000   1.0000   1.0000   1.0000   1.0000   1.0000   1.0000
     1.0000   1.0000   1.0000   1.0000   1.0000   1.0000   1.0000   1.0000
     1.0000   1.0000   1.0000   1.0000   1.0000   1.0000   1.0000   1.0000
     1.0000   1.0000   1.0000   1.0000   1.0000   1.0000   1.0000   1.0000
     1.0000   1.0000   1.0000   1.0000   1.0000   1.0000   1.0000   1.0000
     1.0000   1.0000   1.0000   1.0000   1.0000   1.0000   1.0000   1.0000
     1.0000   1.0000   1.0000   1.0000   1.0000   1.0000   1.0000   1.0000
     1.0000   1.0000   1.0000   1.0000   1.0000   1.0000   1.0000   1.0000
     1.0000   1.0000   1.0000   1.0000   1.0000   1.0000   1.0000   1.0000
     1.0000   1.0000   1.0000   1.0000   1.0000   1.0000   1.0000   1.0000
     1.0000   1.0000   1.0000   1.0000   1.0000   1.0000   1.0000   1.0000
     1.0000   1.0000   1.0000   1.0000   1.0000   1.0000   1.0000   1.0000
     1.0000   1.0000   1.0000   1.0000   1.0000   1.0000   1.0000   1.0000
     1.0000   1.0000   1.0000   1.0000   1.0000   1.0000   1.0000   1.0000
     1.0000   1.0000   1.0000   1.0000   1.0000   1.0000   1.0000   1.0000
     1.0000   1.0000   1.0000   1.0000   1.0000   1.0000   1.0000   1.0000
     1.0000   1.0000   1.0000   1.0000   1.0000   1.0000   1.0000   1.0000
     1.0000   1.0000   1.0000   1.0000   1.0000   1.0000   1.0000   1.0000
     1.0000   1.0000   1.0000   1.0000   1.0000   1.0000   1.0000   1.0000
     1.0000   1.0000   1.0000   1.0000   1.0000   1.0000   1.0000   1.0000
     1.0000   1.0000   1.0000   1.0000   1.0000   1.0000   1.0000   1.0000
     1.0000   1.0000   1.0000   1.0000   1.0000   1.0000   1.0000   1.0000
     0.0000   0.0000   0.0000   0.0000   0.0000   0.0000

          k = 0.0000-0.5000-0.5000 (763368 PWs)   bands (ev):

  -109.6702-109.6647-109.6647-109.6647-109.6593-109.6593-109.6593-109.6538
  -108.7707-108.7707-108.7706-108.7706-108.7706-108.7706-108.7652-108.7652
  -108.7652-108.7652-108.7652-108.7652-108.7652-108.7652-108.7652-108.7652
  -108.7652-108.7652-108.7597-108.7597-108.7597-108.7597-108.7597-108.7597
   -61.0297 -61.0039 -61.0039 -61.0039 -60.9752 -60.9752 -60.9752 -60.9721
   -60.9721 -60.9604 -60.9604 -60.9604 -60.8865 -60.8705 -60.8705 -60.8705
   -60.8637 -60.8637 -60.8637 -60.8390 -60.8390 -60.8390 -60.8286 -60.8286
   -60.1122 -60.1122 -60.1120 -60.1120 -60.1120 -60.1117 -60.0900 -60.0890
   -60.0890 -60.0889 -60.0889 -60.0889 -60.0862 -60.0862 -60.0862 -60.0859
   -60.0859 -60.0859 -60.0857 -60.0857 -60.0857 -60.0856 -60.0856 -60.0856
   -60.0617 -60.0617 -60.0617 -60.0611 -60.0611 -60.0611 -60.0608 -60.0608
   -60.0608 -60.0605 -60.0605 -60.0605 -60.0575 -60.0574 -60.0574 -60.0574
   -60.0564 -60.0564 -60.0429 -60.0420 -60.0420 -60.0420 -60.0419 -60.0419
   -59.9786 -59.9786 -59.9784 -59.9784 -59.9784 -59.9781 -59.9507 -59.9507
   -59.9507 -59.9504 -59.9504 -59.9504 -59.9504 -59.9504 -59.9504 -59.9500
   -59.9500 -59.9500 -59.9186 -59.9182 -59.9182 -59.9182 -59.9180 -59.9180
   -11.2820 -10.2173 -10.2173 -10.2173  -9.8742  -9.8742  -9.6942  -9.6135
    -9.6135  -9.6134  -9.5650  -9.5650  -9.4827  -9.4827  -9.4827  -9.2640
    -9.2640  -9.2640  -9.0956  -9.0956  -9.0956  -8.7441  -8.7441  -8.7154
    -8.6907  -8.6907  -8.6907  -8.6439  -8.6439  -8.6439  -8.5557  -8.5557
    -8.5557  -8.4373  -8.4373  -8.4373  -8.3719  -8.3719  -8.3593  -8.3593
    -8.3593  -8.3376  -8.3376  -8.3376  -8.2983  -8.2882  -8.2882  -8.2882
    -8.2099  -8.1773  -8.1773  -8.1773  -8.1488  -8.1488  -8.1488  -8.1094
    -8.0945  -8.0945  -8.0945  -8.0720  -8.0720  -8.0651  -8.0651  -8.0651
    -8.0512  -8.0512  -8.0512  -8.0483  -8.0483  -8.0483  -8.0251  -8.0251
    -7.8395  -7.8395  -7.8044  -7.4807  -7.3922  -7.3922  -7.3922  -7.3401
    -7.3401  -7.3401  -7.3252  -7.3252  -7.2276  -7.2276  -7.2276  -7.1649
    -7.1649  -7.1387  -7.1387  -7.1387  -7.1135  -7.0960  -7.0960  -7.0960
    -7.0046  -7.0046  -7.0046  -6.9288  -6.9288  -6.9288  -6.8941  -6.8941
    -6.8941  -6.8589  -6.8589  -6.8589  -6.8379  -6.8379  -6.8379  -6.8128
    -6.8128  -6.8128  -6.6400  -6.6400  -6.4908  -6.4908  -6.4908  -6.3941
    -6.3940  -6.3940  -6.3651  -6.3651  -6.3651  -6.2954  -6.2954  -6.2954
    -6.2695  -6.2695  -6.2695  -6.2567  -6.2567  -6.2070  -6.1824  -6.1824
    -6.1824  -6.1441  -6.1441  -6.1441  -6.1347  -6.1347  -6.1347  -6.0120
    -5.9975  -5.9956  -5.9956  -5.9956  -5.9123  -5.9123  -5.9122  -5.8901
    -5.8871  -5.8871  -5.8519  -5.8519  -5.6743  -5.6743  -5.5980  -5.5980
    -5.5980  -5.5459  -5.5459  -5.5459  -5.4411  -5.3422  -5.3422  -5.3422
    -5.1686  -5.1685  -4.8803  -4.8803  -4.8803  -4.7447  -4.7447  -4.7447
    -4.3881  -3.9526  -3.9526  -3.9526  -3.6820  -3.6820

     occupation numbers 
     1.0000   1.0000   1.0000   1.0000   1.0000   1.0000   1.0000   1.0000
     1.0000   1.0000   1.0000   1.0000   1.0000   1.0000   1.0000   1.0000
     1.0000   1.0000   1.0000   1.0000   1.0000   1.0000   1.0000   1.0000
     1.0000   1.0000   1.0000   1.0000   1.0000   1.0000   1.0000   1.0000
     1.0000   1.0000   1.0000   1.0000   1.0000   1.0000   1.0000   1.0000
     1.0000   1.0000   1.0000   1.0000   1.0000   1.0000   1.0000   1.0000
     1.0000   1.0000   1.0000   1.0000   1.0000   1.0000   1.0000   1.0000
     1.0000   1.0000   1.0000   1.0000   1.0000   1.0000   1.0000   1.0000
     1.0000   1.0000   1.0000   1.0000   1.0000   1.0000   1.0000   1.0000
     1.0000   1.0000   1.0000   1.0000   1.0000   1.0000   1.0000   1.0000
     1.0000   1.0000   1.0000   1.0000   1.0000   1.0000   1.0000   1.0000
     1.0000   1.0000   1.0000   1.0000   1.0000   1.0000   1.0000   1.0000
     1.0000   1.0000   1.0000   1.0000   1.0000   1.0000   1.0000   1.0000
     1.0000   1.0000   1.0000   1.0000   1.0000   1.0000   1.0000   1.0000
     1.0000   1.0000   1.0000   1.0000   1.0000   1.0000   1.0000   1.0000
     1.0000   1.0000   1.0000   1.0000   1.0000   1.0000   1.0000   1.0000
     1.0000   1.0000   1.0000   1.0000   1.0000   1.0000   1.0000   1.0000
     1.0000   1.0000   1.0000   1.0000   1.0000   1.0000   1.0000   1.0000
     1.0000   1.0000   1.0000   1.0000   1.0000   1.0000   1.0000   1.0000
     1.0000   1.0000   1.0000   1.0000   1.0000   1.0000   1.0000   1.0000
     1.0000   1.0000   1.0000   1.0000   1.0000   1.0000   1.0000   1.0000
     1.0000   1.0000   1.0000   1.0000   1.0000   1.0000   1.0000   1.0000
     1.0000   1.0000   1.0000   1.0000   1.0000   1.0000   1.0000   1.0000
     1.0000   1.0000   1.0000   1.0000   1.0000   1.0000   1.0000   1.0000
     1.0000   1.0000   1.0000   1.0000   1.0000   1.0000   1.0000   1.0000
     1.0000   1.0000   1.0000   1.0000   1.0000   1.0000   1.0000   1.0000
     1.0000   1.0000   1.0000   1.0000   1.0000   1.0000   1.0000   1.0000
     1.0000   1.0000   1.0000   1.0000   1.0000   1.0000   1.0000   1.0000
     1.0000   1.0000   1.0000   1.0000   1.0000   1.0000   1.0000   1.0000
     1.0000   1.0000   1.0000   1.0000   1.0000   1.0000   1.0000   1.0000
     1.0000   1.0000   1.0000   1.0000   1.0000   1.0000   1.0000   1.0000
     1.0000   1.0000   1.0000   1.0000   1.0000   1.0000   1.0000   1.0000
     1.0000   1.0000   1.0000   1.0000   1.0000   1.0000   1.0000   1.0000
     1.0000   1.0000   1.0000   1.0000   1.0000   1.0000   1.0000   1.0000
     1.0000   1.0000   1.0000   1.0000   1.0000   1.0000   1.0000   1.0000
     1.0000   1.0000   1.0000   1.0000   1.0000   1.0000   1.0000   1.0000
     1.0000   1.0000   1.0000   1.0000   1.0000   1.0000   1.0000   1.0000
     1.0000   1.0000   1.0000   1.0000   1.0000   1.0000   1.0000   1.0000
     0.0000   0.0000   0.0000   0.0000   0.0000   0.0000

          k =-0.5000 0.0000 0.0000 (763074 PWs)   bands (ev):

  -109.6702-109.6647-109.6647-109.6647-109.6593-109.6593-109.6593-109.6538
  -108.7707-108.7707-108.7706-108.7706-108.7706-108.7706-108.7652-108.7652
  -108.7652-108.7652-108.7652-108.7652-108.7652-108.7652-108.7652-108.7652
  -108.7652-108.7652-108.7597-108.7597-108.7597-108.7597-108.7597-108.7597
   -61.0297 -61.0039 -61.0039 -61.0039 -60.9752 -60.9752 -60.9752 -60.9721
   -60.9721 -60.9604 -60.9604 -60.9604 -60.8865 -60.8705 -60.8705 -60.8705
   -60.8637 -60.8637 -60.8637 -60.8390 -60.8390 -60.8390 -60.8286 -60.8286
   -60.1122 -60.1122 -60.1120 -60.1120 -60.1120 -60.1117 -60.0900 -60.0890
   -60.0890 -60.0889 -60.0889 -60.0889 -60.0862 -60.0862 -60.0862 -60.0859
   -60.0859 -60.0859 -60.0857 -60.0857 -60.0857 -60.0856 -60.0856 -60.0856
   -60.0617 -60.0617 -60.0617 -60.0611 -60.0611 -60.0611 -60.0608 -60.0608
   -60.0608 -60.0605 -60.0605 -60.0605 -60.0575 -60.0574 -60.0574 -60.0574
   -60.0564 -60.0564 -60.0429 -60.0420 -60.0420 -60.0420 -60.0419 -60.0419
   -59.9786 -59.9786 -59.9784 -59.9784 -59.9784 -59.9781 -59.9507 -59.9507
   -59.9507 -59.9504 -59.9504 -59.9504 -59.9504 -59.9504 -59.9504 -59.9500
   -59.9500 -59.9500 -59.9186 -59.9182 -59.9182 -59.9182 -59.9180 -59.9180
   -11.2820 -10.2173 -10.2173 -10.2173  -9.8742  -9.8742  -9.6942  -9.6134
    -9.6134  -9.6134  -9.5650  -9.5650  -9.4827  -9.4827  -9.4827  -9.2640
    -9.2640  -9.2640  -9.0956  -9.0956  -9.0956  -8.7441  -8.7441  -8.7154
    -8.6907  -8.6907  -8.6907  -8.6439  -8.6439  -8.6439  -8.5557  -8.5557
    -8.5557  -8.4373  -8.4373  -8.4373  -8.3719  -8.3719  -8.3593  -8.3593
    -8.3593  -8.3376  -8.3376  -8.3376  -8.2982  -8.2882  -8.2882  -8.2882
    -8.2099  -8.1773  -8.1773  -8.1773  -8.1488  -8.1488  -8.1488  -8.1094
    -8.0945  -8.0945  -8.0945  -8.0720  -8.0720  -8.0651  -8.0651  -8.0651
    -8.0512  -8.0512  -8.0512  -8.0483  -8.0483  -8.0483  -8.0251  -8.0251
    -7.8395  -7.8395  -7.8044  -7.4807  -7.3922  -7.3922  -7.3922  -7.3401
    -7.3401  -7.3401  -7.3253  -7.3253  -7.2276  -7.2276  -7.2276  -7.1649
    -7.1649  -7.1387  -7.1387  -7.1387  -7.1135  -7.0960  -7.0960  -7.0960
    -7.0046  -7.0046  -7.0046  -6.9288  -6.9288  -6.9288  -6.8941  -6.8941
    -6.8941  -6.8589  -6.8589  -6.8589  -6.8379  -6.8379  -6.8379  -6.8129
    -6.8129  -6.8128  -6.6400  -6.6400  -6.4908  -6.4908  -6.4908  -6.3940
    -6.3940  -6.3940  -6.3651  -6.3651  -6.3651  -6.2954  -6.2954  -6.2954
    -6.2695  -6.2695  -6.2695  -6.2567  -6.2567  -6.2070  -6.1824  -6.1824
    -6.1824  -6.1441  -6.1441  -6.1441  -6.1347  -6.1347  -6.1347  -6.0120
    -5.9975  -5.9956  -5.9956  -5.9956  -5.9122  -5.9122  -5.9122  -5.8901
    -5.8871  -5.8871  -5.8519  -5.8519  -5.6743  -5.6743  -5.5980  -5.5980
    -5.5980  -5.5459  -5.5459  -5.5459  -5.4411  -5.3422  -5.3422  -5.3422
    -5.1686  -5.1685  -4.8803  -4.8803  -4.8803  -4.7447  -4.7447  -4.7447
    -4.3881  -3.9526  -3.9526  -3.9526  -3.6820  -3.6820

     occupation numbers 
     1.0000   1.0000   1.0000   1.0000   1.0000   1.0000   1.0000   1.0000
     1.0000   1.0000   1.0000   1.0000   1.0000   1.0000   1.0000   1.0000
     1.0000   1.0000   1.0000   1.0000   1.0000   1.0000   1.0000   1.0000
     1.0000   1.0000   1.0000   1.0000   1.0000   1.0000   1.0000   1.0000
     1.0000   1.0000   1.0000   1.0000   1.0000   1.0000   1.0000   1.0000
     1.0000   1.0000   1.0000   1.0000   1.0000   1.0000   1.0000   1.0000
     1.0000   1.0000   1.0000   1.0000   1.0000   1.0000   1.0000   1.0000
     1.0000   1.0000   1.0000   1.0000   1.0000   1.0000   1.0000   1.0000
     1.0000   1.0000   1.0000   1.0000   1.0000   1.0000   1.0000   1.0000
     1.0000   1.0000   1.0000   1.0000   1.0000   1.0000   1.0000   1.0000
     1.0000   1.0000   1.0000   1.0000   1.0000   1.0000   1.0000   1.0000
     1.0000   1.0000   1.0000   1.0000   1.0000   1.0000   1.0000   1.0000
     1.0000   1.0000   1.0000   1.0000   1.0000   1.0000   1.0000   1.0000
     1.0000   1.0000   1.0000   1.0000   1.0000   1.0000   1.0000   1.0000
     1.0000   1.0000   1.0000   1.0000   1.0000   1.0000   1.0000   1.0000
     1.0000   1.0000   1.0000   1.0000   1.0000   1.0000   1.0000   1.0000
     1.0000   1.0000   1.0000   1.0000   1.0000   1.0000   1.0000   1.0000
     1.0000   1.0000   1.0000   1.0000   1.0000   1.0000   1.0000   1.0000
     1.0000   1.0000   1.0000   1.0000   1.0000   1.0000   1.0000   1.0000
     1.0000   1.0000   1.0000   1.0000   1.0000   1.0000   1.0000   1.0000
     1.0000   1.0000   1.0000   1.0000   1.0000   1.0000   1.0000   1.0000
     1.0000   1.0000   1.0000   1.0000   1.0000   1.0000   1.0000   1.0000
     1.0000   1.0000   1.0000   1.0000   1.0000   1.0000   1.0000   1.0000
     1.0000   1.0000   1.0000   1.0000   1.0000   1.0000   1.0000   1.0000
     1.0000   1.0000   1.0000   1.0000   1.0000   1.0000   1.0000   1.0000
     1.0000   1.0000   1.0000   1.0000   1.0000   1.0000   1.0000   1.0000
     1.0000   1.0000   1.0000   1.0000   1.0000   1.0000   1.0000   1.0000
     1.0000   1.0000   1.0000   1.0000   1.0000   1.0000   1.0000   1.0000
     1.0000   1.0000   1.0000   1.0000   1.0000   1.0000   1.0000   1.0000
     1.0000   1.0000   1.0000   1.0000   1.0000   1.0000   1.0000   1.0000
     1.0000   1.0000   1.0000   1.0000   1.0000   1.0000   1.0000   1.0000
     1.0000   1.0000   1.0000   1.0000   1.0000   1.0000   1.0000   1.0000
     1.0000   1.0000   1.0000   1.0000   1.0000   1.0000   1.0000   1.0000
     1.0000   1.0000   1.0000   1.0000   1.0000   1.0000   1.0000   1.0000
     1.0000   1.0000   1.0000   1.0000   1.0000   1.0000   1.0000   1.0000
     1.0000   1.0000   1.0000   1.0000   1.0000   1.0000   1.0000   1.0000
     1.0000   1.0000   1.0000   1.0000   1.0000   1.0000   1.0000   1.0000
     1.0000   1.0000   1.0000   1.0000   1.0000   1.0000   1.0000   1.0000
     0.0000   0.0000   0.0000   0.0000   0.0000   0.0000

          k =-0.5000 0.0000-0.5000 (763368 PWs)   bands (ev):

  -109.6702-109.6647-109.6647-109.6647-109.6593-109.6593-109.6593-109.6538
  -108.7707-108.7707-108.7706-108.7706-108.7706-108.7706-108.7652-108.7652
  -108.7652-108.7652-108.7652-108.7652-108.7652-108.7652-108.7652-108.7652
  -108.7652-108.7652-108.7597-108.7597-108.7597-108.7597-108.7597-108.7597
   -61.0297 -61.0039 -61.0039 -61.0039 -60.9752 -60.9752 -60.9752 -60.9721
   -60.9721 -60.9604 -60.9604 -60.9604 -60.8865 -60.8705 -60.8705 -60.8705
   -60.8637 -60.8637 -60.8637 -60.8390 -60.8390 -60.8390 -60.8286 -60.8286
   -60.1122 -60.1122 -60.1120 -60.1120 -60.1120 -60.1117 -60.0900 -60.0890
   -60.0890 -60.0889 -60.0889 -60.0889 -60.0862 -60.0862 -60.0862 -60.0859
   -60.0859 -60.0859 -60.0857 -60.0857 -60.0857 -60.0856 -60.0856 -60.0856
   -60.0617 -60.0617 -60.0617 -60.0611 -60.0611 -60.0611 -60.0608 -60.0608
   -60.0608 -60.0605 -60.0605 -60.0605 -60.0575 -60.0574 -60.0574 -60.0574
   -60.0564 -60.0564 -60.0429 -60.0420 -60.0420 -60.0420 -60.0419 -60.0419
   -59.9786 -59.9786 -59.9784 -59.9784 -59.9784 -59.9781 -59.9507 -59.9507
   -59.9507 -59.9504 -59.9504 -59.9504 -59.9504 -59.9504 -59.9504 -59.9500
   -59.9500 -59.9500 -59.9186 -59.9182 -59.9182 -59.9182 -59.9180 -59.9180
   -11.2820 -10.2173 -10.2173 -10.2173  -9.8742  -9.8742  -9.6942  -9.6135
    -9.6135  -9.6134  -9.5650  -9.5650  -9.4827  -9.4827  -9.4827  -9.2640
    -9.2640  -9.2640  -9.0956  -9.0956  -9.0956  -8.7441  -8.7441  -8.7154
    -8.6907  -8.6907  -8.6907  -8.6439  -8.6439  -8.6439  -8.5557  -8.5557
    -8.5557  -8.4373  -8.4373  -8.4373  -8.3719  -8.3719  -8.3593  -8.3593
    -8.3593  -8.3376  -8.3376  -8.3376  -8.2983  -8.2882  -8.2882  -8.2882
    -8.2099  -8.1773  -8.1773  -8.1773  -8.1488  -8.1488  -8.1488  -8.1094
    -8.0945  -8.0945  -8.0945  -8.0720  -8.0720  -8.0651  -8.0651  -8.0651
    -8.0512  -8.0512  -8.0512  -8.0483  -8.0483  -8.0483  -8.0251  -8.0251
    -7.8395  -7.8395  -7.8044  -7.4807  -7.3922  -7.3922  -7.3922  -7.3401
    -7.3401  -7.3401  -7.3252  -7.3252  -7.2276  -7.2276  -7.2276  -7.1649
    -7.1649  -7.1387  -7.1387  -7.1387  -7.1135  -7.0960  -7.0960  -7.0960
    -7.0046  -7.0046  -7.0046  -6.9288  -6.9288  -6.9288  -6.8941  -6.8941
    -6.8941  -6.8589  -6.8589  -6.8589  -6.8379  -6.8379  -6.8379  -6.8128
    -6.8128  -6.8128  -6.6400  -6.6400  -6.4908  -6.4908  -6.4908  -6.3941
    -6.3940  -6.3940  -6.3651  -6.3651  -6.3651  -6.2954  -6.2954  -6.2954
    -6.2695  -6.2695  -6.2695  -6.2567  -6.2567  -6.2070  -6.1824  -6.1824
    -6.1824  -6.1441  -6.1441  -6.1441  -6.1347  -6.1347  -6.1347  -6.0120
    -5.9975  -5.9956  -5.9956  -5.9956  -5.9123  -5.9123  -5.9122  -5.8901
    -5.8871  -5.8871  -5.8519  -5.8519  -5.6743  -5.6743  -5.5980  -5.5980
    -5.5980  -5.5459  -5.5459  -5.5459  -5.4411  -5.3422  -5.3422  -5.3422
    -5.1686  -5.1685  -4.8803  -4.8803  -4.8803  -4.7447  -4.7447  -4.7447
    -4.3881  -3.9526  -3.9526  -3.9526  -3.6820  -3.6820

     occupation numbers 
     1.0000   1.0000   1.0000   1.0000   1.0000   1.0000   1.0000   1.0000
     1.0000   1.0000   1.0000   1.0000   1.0000   1.0000   1.0000   1.0000
     1.0000   1.0000   1.0000   1.0000   1.0000   1.0000   1.0000   1.0000
     1.0000   1.0000   1.0000   1.0000   1.0000   1.0000   1.0000   1.0000
     1.0000   1.0000   1.0000   1.0000   1.0000   1.0000   1.0000   1.0000
     1.0000   1.0000   1.0000   1.0000   1.0000   1.0000   1.0000   1.0000
     1.0000   1.0000   1.0000   1.0000   1.0000   1.0000   1.0000   1.0000
     1.0000   1.0000   1.0000   1.0000   1.0000   1.0000   1.0000   1.0000
     1.0000   1.0000   1.0000   1.0000   1.0000   1.0000   1.0000   1.0000
     1.0000   1.0000   1.0000   1.0000   1.0000   1.0000   1.0000   1.0000
     1.0000   1.0000   1.0000   1.0000   1.0000   1.0000   1.0000   1.0000
     1.0000   1.0000   1.0000   1.0000   1.0000   1.0000   1.0000   1.0000
     1.0000   1.0000   1.0000   1.0000   1.0000   1.0000   1.0000   1.0000
     1.0000   1.0000   1.0000   1.0000   1.0000   1.0000   1.0000   1.0000
     1.0000   1.0000   1.0000   1.0000   1.0000   1.0000   1.0000   1.0000
     1.0000   1.0000   1.0000   1.0000   1.0000   1.0000   1.0000   1.0000
     1.0000   1.0000   1.0000   1.0000   1.0000   1.0000   1.0000   1.0000
     1.0000   1.0000   1.0000   1.0000   1.0000   1.0000   1.0000   1.0000
     1.0000   1.0000   1.0000   1.0000   1.0000   1.0000   1.0000   1.0000
     1.0000   1.0000   1.0000   1.0000   1.0000   1.0000   1.0000   1.0000
     1.0000   1.0000   1.0000   1.0000   1.0000   1.0000   1.0000   1.0000
     1.0000   1.0000   1.0000   1.0000   1.0000   1.0000   1.0000   1.0000
     1.0000   1.0000   1.0000   1.0000   1.0000   1.0000   1.0000   1.0000
     1.0000   1.0000   1.0000   1.0000   1.0000   1.0000   1.0000   1.0000
     1.0000   1.0000   1.0000   1.0000   1.0000   1.0000   1.0000   1.0000
     1.0000   1.0000   1.0000   1.0000   1.0000   1.0000   1.0000   1.0000
     1.0000   1.0000   1.0000   1.0000   1.0000   1.0000   1.0000   1.0000
     1.0000   1.0000   1.0000   1.0000   1.0000   1.0000   1.0000   1.0000
     1.0000   1.0000   1.0000   1.0000   1.0000   1.0000   1.0000   1.0000
     1.0000   1.0000   1.0000   1.0000   1.0000   1.0000   1.0000   1.0000
     1.0000   1.0000   1.0000   1.0000   1.0000   1.0000   1.0000   1.0000
     1.0000   1.0000   1.0000   1.0000   1.0000   1.0000   1.0000   1.0000
     1.0000   1.0000   1.0000   1.0000   1.0000   1.0000   1.0000   1.0000
     1.0000   1.0000   1.0000   1.0000   1.0000   1.0000   1.0000   1.0000
     1.0000   1.0000   1.0000   1.0000   1.0000   1.0000   1.0000   1.0000
     1.0000   1.0000   1.0000   1.0000   1.0000   1.0000   1.0000   1.0000
     1.0000   1.0000   1.0000   1.0000   1.0000   1.0000   1.0000   1.0000
     1.0000   1.0000   1.0000   1.0000   1.0000   1.0000   1.0000   1.0000
     0.0000   0.0000   0.0000   0.0000   0.0000   0.0000

          k =-0.5000-0.5000 0.0000 (763368 PWs)   bands (ev):

  -109.6702-109.6647-109.6647-109.6647-109.6593-109.6593-109.6593-109.6538
  -108.7707-108.7707-108.7706-108.7706-108.7706-108.7706-108.7652-108.7652
  -108.7652-108.7652-108.7652-108.7652-108.7652-108.7652-108.7652-108.7652
  -108.7652-108.7652-108.7597-108.7597-108.7597-108.7597-108.7597-108.7597
   -61.0297 -61.0039 -61.0039 -61.0039 -60.9752 -60.9752 -60.9752 -60.9721
   -60.9721 -60.9604 -60.9604 -60.9604 -60.8865 -60.8705 -60.8705 -60.8705
   -60.8637 -60.8637 -60.8637 -60.8390 -60.8390 -60.8390 -60.8286 -60.8286
   -60.1122 -60.1122 -60.1120 -60.1120 -60.1120 -60.1117 -60.0900 -60.0890
   -60.0890 -60.0889 -60.0889 -60.0889 -60.0862 -60.0862 -60.0862 -60.0859
   -60.0859 -60.0859 -60.0857 -60.0857 -60.0857 -60.0856 -60.0856 -60.0856
   -60.0617 -60.0617 -60.0617 -60.0611 -60.0611 -60.0611 -60.0608 -60.0608
   -60.0608 -60.0605 -60.0605 -60.0605 -60.0575 -60.0574 -60.0574 -60.0574
   -60.0564 -60.0564 -60.0429 -60.0420 -60.0420 -60.0420 -60.0419 -60.0419
   -59.9786 -59.9786 -59.9784 -59.9784 -59.9784 -59.9781 -59.9507 -59.9507
   -59.9507 -59.9504 -59.9504 -59.9504 -59.9504 -59.9504 -59.9504 -59.9500
   -59.9500 -59.9500 -59.9186 -59.9182 -59.9182 -59.9182 -59.9180 -59.9180
   -11.2820 -10.2173 -10.2173 -10.2173  -9.8742  -9.8742  -9.6942  -9.6135
    -9.6135  -9.6134  -9.5650  -9.5650  -9.4827  -9.4827  -9.4827  -9.2640
    -9.2640  -9.2640  -9.0956  -9.0956  -9.0956  -8.7441  -8.7441  -8.7154
    -8.6907  -8.6907  -8.6907  -8.6439  -8.6439  -8.6439  -8.5557  -8.5557
    -8.5557  -8.4373  -8.4373  -8.4373  -8.3719  -8.3719  -8.3593  -8.3593
    -8.3593  -8.3376  -8.3376  -8.3376  -8.2983  -8.2882  -8.2882  -8.2882
    -8.2099  -8.1773  -8.1773  -8.1773  -8.1488  -8.1488  -8.1488  -8.1094
    -8.0945  -8.0945  -8.0945  -8.0720  -8.0720  -8.0651  -8.0651  -8.0651
    -8.0512  -8.0512  -8.0512  -8.0483  -8.0483  -8.0483  -8.0251  -8.0251
    -7.8395  -7.8395  -7.8044  -7.4807  -7.3922  -7.3922  -7.3922  -7.3401
    -7.3401  -7.3401  -7.3252  -7.3252  -7.2276  -7.2276  -7.2276  -7.1649
    -7.1649  -7.1387  -7.1387  -7.1387  -7.1135  -7.0960  -7.0960  -7.0960
    -7.0046  -7.0046  -7.0046  -6.9288  -6.9288  -6.9288  -6.8941  -6.8941
    -6.8941  -6.8589  -6.8589  -6.8589  -6.8379  -6.8379  -6.8379  -6.8128
    -6.8128  -6.8128  -6.6400  -6.6400  -6.4908  -6.4908  -6.4908  -6.3941
    -6.3940  -6.3940  -6.3651  -6.3651  -6.3651  -6.2954  -6.2954  -6.2954
    -6.2695  -6.2695  -6.2695  -6.2567  -6.2567  -6.2070  -6.1824  -6.1824
    -6.1824  -6.1441  -6.1441  -6.1441  -6.1347  -6.1347  -6.1347  -6.0120
    -5.9975  -5.9956  -5.9956  -5.9956  -5.9123  -5.9123  -5.9122  -5.8901
    -5.8871  -5.8871  -5.8519  -5.8519  -5.6743  -5.6743  -5.5980  -5.5980
    -5.5980  -5.5459  -5.5459  -5.5459  -5.4411  -5.3422  -5.3422  -5.3422
    -5.1686  -5.1685  -4.8803  -4.8803  -4.8803  -4.7447  -4.7447  -4.7447
    -4.3881  -3.9526  -3.9526  -3.9526  -3.6820  -3.6820

     occupation numbers 
     1.0000   1.0000   1.0000   1.0000   1.0000   1.0000   1.0000   1.0000
     1.0000   1.0000   1.0000   1.0000   1.0000   1.0000   1.0000   1.0000
     1.0000   1.0000   1.0000   1.0000   1.0000   1.0000   1.0000   1.0000
     1.0000   1.0000   1.0000   1.0000   1.0000   1.0000   1.0000   1.0000
     1.0000   1.0000   1.0000   1.0000   1.0000   1.0000   1.0000   1.0000
     1.0000   1.0000   1.0000   1.0000   1.0000   1.0000   1.0000   1.0000
     1.0000   1.0000   1.0000   1.0000   1.0000   1.0000   1.0000   1.0000
     1.0000   1.0000   1.0000   1.0000   1.0000   1.0000   1.0000   1.0000
     1.0000   1.0000   1.0000   1.0000   1.0000   1.0000   1.0000   1.0000
     1.0000   1.0000   1.0000   1.0000   1.0000   1.0000   1.0000   1.0000
     1.0000   1.0000   1.0000   1.0000   1.0000   1.0000   1.0000   1.0000
     1.0000   1.0000   1.0000   1.0000   1.0000   1.0000   1.0000   1.0000
     1.0000   1.0000   1.0000   1.0000   1.0000   1.0000   1.0000   1.0000
     1.0000   1.0000   1.0000   1.0000   1.0000   1.0000   1.0000   1.0000
     1.0000   1.0000   1.0000   1.0000   1.0000   1.0000   1.0000   1.0000
     1.0000   1.0000   1.0000   1.0000   1.0000   1.0000   1.0000   1.0000
     1.0000   1.0000   1.0000   1.0000   1.0000   1.0000   1.0000   1.0000
     1.0000   1.0000   1.0000   1.0000   1.0000   1.0000   1.0000   1.0000
     1.0000   1.0000   1.0000   1.0000   1.0000   1.0000   1.0000   1.0000
     1.0000   1.0000   1.0000   1.0000   1.0000   1.0000   1.0000   1.0000
     1.0000   1.0000   1.0000   1.0000   1.0000   1.0000   1.0000   1.0000
     1.0000   1.0000   1.0000   1.0000   1.0000   1.0000   1.0000   1.0000
     1.0000   1.0000   1.0000   1.0000   1.0000   1.0000   1.0000   1.0000
     1.0000   1.0000   1.0000   1.0000   1.0000   1.0000   1.0000   1.0000
     1.0000   1.0000   1.0000   1.0000   1.0000   1.0000   1.0000   1.0000
     1.0000   1.0000   1.0000   1.0000   1.0000   1.0000   1.0000   1.0000
     1.0000   1.0000   1.0000   1.0000   1.0000   1.0000   1.0000   1.0000
     1.0000   1.0000   1.0000   1.0000   1.0000   1.0000   1.0000   1.0000
     1.0000   1.0000   1.0000   1.0000   1.0000   1.0000   1.0000   1.0000
     1.0000   1.0000   1.0000   1.0000   1.0000   1.0000   1.0000   1.0000
     1.0000   1.0000   1.0000   1.0000   1.0000   1.0000   1.0000   1.0000
     1.0000   1.0000   1.0000   1.0000   1.0000   1.0000   1.0000   1.0000
     1.0000   1.0000   1.0000   1.0000   1.0000   1.0000   1.0000   1.0000
     1.0000   1.0000   1.0000   1.0000   1.0000   1.0000   1.0000   1.0000
     1.0000   1.0000   1.0000   1.0000   1.0000   1.0000   1.0000   1.0000
     1.0000   1.0000   1.0000   1.0000   1.0000   1.0000   1.0000   1.0000
     1.0000   1.0000   1.0000   1.0000   1.0000   1.0000   1.0000   1.0000
     1.0000   1.0000   1.0000   1.0000   1.0000   1.0000   1.0000   1.0000
     0.0000   0.0000   0.0000   0.0000   0.0000   0.0000

          k =-0.5000-0.5000-0.5000 (763632 PWs)   bands (ev):

  -109.6702-109.6647-109.6647-109.6647-109.6593-109.6593-109.6593-109.6538
  -108.7707-108.7707-108.7706-108.7706-108.7706-108.7706-108.7652-108.7652
  -108.7652-108.7652-108.7652-108.7652-108.7652-108.7652-108.7652-108.7652
  -108.7652-108.7652-108.7597-108.7597-108.7597-108.7597-108.7597-108.7597
   -61.0297 -61.0039 -61.0039 -61.0039 -60.9752 -60.9752 -60.9752 -60.9721
   -60.9721 -60.9604 -60.9604 -60.9604 -60.8865 -60.8705 -60.8705 -60.8705
   -60.8637 -60.8637 -60.8637 -60.8390 -60.8390 -60.8390 -60.8286 -60.8286
   -60.1122 -60.1122 -60.1120 -60.1120 -60.1120 -60.1117 -60.0900 -60.0890
   -60.0890 -60.0889 -60.0889 -60.0889 -60.0862 -60.0862 -60.0862 -60.0859
   -60.0859 -60.0859 -60.0857 -60.0857 -60.0857 -60.0856 -60.0856 -60.0856
   -60.0617 -60.0617 -60.0617 -60.0611 -60.0611 -60.0611 -60.0608 -60.0608
   -60.0608 -60.0605 -60.0605 -60.0605 -60.0575 -60.0574 -60.0574 -60.0574
   -60.0564 -60.0564 -60.0429 -60.0420 -60.0420 -60.0420 -60.0419 -60.0419
   -59.9786 -59.9786 -59.9784 -59.9784 -59.9784 -59.9781 -59.9507 -59.9507
   -59.9507 -59.9504 -59.9504 -59.9504 -59.9504 -59.9504 -59.9504 -59.9500
   -59.9500 -59.9500 -59.9186 -59.9182 -59.9182 -59.9182 -59.9180 -59.9180
   -11.2820 -10.2173 -10.2173 -10.2173  -9.8742  -9.8742  -9.6942  -9.6135
    -9.6135  -9.6135  -9.5650  -9.5650  -9.4827  -9.4827  -9.4827  -9.2640
    -9.2640  -9.2640  -9.0956  -9.0956  -9.0956  -8.7441  -8.7441  -8.7154
    -8.6907  -8.6907  -8.6907  -8.6439  -8.6439  -8.6439  -8.5557  -8.5557
    -8.5557  -8.4373  -8.4373  -8.4373  -8.3719  -8.3719  -8.3593  -8.3593
    -8.3593  -8.3376  -8.3376  -8.3376  -8.2983  -8.2882  -8.2882  -8.2882
    -8.2099  -8.1773  -8.1773  -8.1773  -8.1488  -8.1488  -8.1488  -8.1094
    -8.0945  -8.0945  -8.0945  -8.0720  -8.0720  -8.0651  -8.0651  -8.0651
    -8.0512  -8.0512  -8.0512  -8.0483  -8.0483  -8.0483  -8.0251  -8.0251
    -7.8395  -7.8395  -7.8044  -7.4807  -7.3922  -7.3922  -7.3922  -7.3401
    -7.3401  -7.3401  -7.3253  -7.3253  -7.2276  -7.2276  -7.2276  -7.1649
    -7.1649  -7.1387  -7.1387  -7.1387  -7.1135  -7.0960  -7.0960  -7.0960
    -7.0046  -7.0046  -7.0046  -6.9288  -6.9288  -6.9288  -6.8941  -6.8941
    -6.8941  -6.8589  -6.8589  -6.8589  -6.8379  -6.8379  -6.8379  -6.8129
    -6.8129  -6.8129  -6.6400  -6.6400  -6.4908  -6.4908  -6.4908  -6.3941
    -6.3941  -6.3941  -6.3652  -6.3652  -6.3652  -6.2954  -6.2954  -6.2954
    -6.2695  -6.2695  -6.2695  -6.2567  -6.2567  -6.2070  -6.1824  -6.1824
    -6.1824  -6.1441  -6.1441  -6.1441  -6.1347  -6.1347  -6.1347  -6.0121
    -5.9975  -5.9956  -5.9956  -5.9956  -5.9122  -5.9122  -5.9122  -5.8901
    -5.8871  -5.8871  -5.8519  -5.8519  -5.6743  -5.6743  -5.5980  -5.5980
    -5.5980  -5.5459  -5.5459  -5.5459  -5.4411  -5.3422  -5.3422  -5.3422
    -5.1685  -5.1685  -4.8803  -4.8803  -4.8803  -4.7447  -4.7447  -4.7447
    -4.3881  -3.9526  -3.9526  -3.9526  -3.6820  -3.6820

     occupation numbers 
     1.0000   1.0000   1.0000   1.0000   1.0000   1.0000   1.0000   1.0000
     1.0000   1.0000   1.0000   1.0000   1.0000   1.0000   1.0000   1.0000
     1.0000   1.0000   1.0000   1.0000   1.0000   1.0000   1.0000   1.0000
     1.0000   1.0000   1.0000   1.0000   1.0000   1.0000   1.0000   1.0000
     1.0000   1.0000   1.0000   1.0000   1.0000   1.0000   1.0000   1.0000
     1.0000   1.0000   1.0000   1.0000   1.0000   1.0000   1.0000   1.0000
     1.0000   1.0000   1.0000   1.0000   1.0000   1.0000   1.0000   1.0000
     1.0000   1.0000   1.0000   1.0000   1.0000   1.0000   1.0000   1.0000
     1.0000   1.0000   1.0000   1.0000   1.0000   1.0000   1.0000   1.0000
     1.0000   1.0000   1.0000   1.0000   1.0000   1.0000   1.0000   1.0000
     1.0000   1.0000   1.0000   1.0000   1.0000   1.0000   1.0000   1.0000
     1.0000   1.0000   1.0000   1.0000   1.0000   1.0000   1.0000   1.0000
     1.0000   1.0000   1.0000   1.0000   1.0000   1.0000   1.0000   1.0000
     1.0000   1.0000   1.0000   1.0000   1.0000   1.0000   1.0000   1.0000
     1.0000   1.0000   1.0000   1.0000   1.0000   1.0000   1.0000   1.0000
     1.0000   1.0000   1.0000   1.0000   1.0000   1.0000   1.0000   1.0000
     1.0000   1.0000   1.0000   1.0000   1.0000   1.0000   1.0000   1.0000
     1.0000   1.0000   1.0000   1.0000   1.0000   1.0000   1.0000   1.0000
     1.0000   1.0000   1.0000   1.0000   1.0000   1.0000   1.0000   1.0000
     1.0000   1.0000   1.0000   1.0000   1.0000   1.0000   1.0000   1.0000
     1.0000   1.0000   1.0000   1.0000   1.0000   1.0000   1.0000   1.0000
     1.0000   1.0000   1.0000   1.0000   1.0000   1.0000   1.0000   1.0000
     1.0000   1.0000   1.0000   1.0000   1.0000   1.0000   1.0000   1.0000
     1.0000   1.0000   1.0000   1.0000   1.0000   1.0000   1.0000   1.0000
     1.0000   1.0000   1.0000   1.0000   1.0000   1.0000   1.0000   1.0000
     1.0000   1.0000   1.0000   1.0000   1.0000   1.0000   1.0000   1.0000
     1.0000   1.0000   1.0000   1.0000   1.0000   1.0000   1.0000   1.0000
     1.0000   1.0000   1.0000   1.0000   1.0000   1.0000   1.0000   1.0000
     1.0000   1.0000   1.0000   1.0000   1.0000   1.0000   1.0000   1.0000
     1.0000   1.0000   1.0000   1.0000   1.0000   1.0000   1.0000   1.0000
     1.0000   1.0000   1.0000   1.0000   1.0000   1.0000   1.0000   1.0000
     1.0000   1.0000   1.0000   1.0000   1.0000   1.0000   1.0000   1.0000
     1.0000   1.0000   1.0000   1.0000   1.0000   1.0000   1.0000   1.0000
     1.0000   1.0000   1.0000   1.0000   1.0000   1.0000   1.0000   1.0000
     1.0000   1.0000   1.0000   1.0000   1.0000   1.0000   1.0000   1.0000
     1.0000   1.0000   1.0000   1.0000   1.0000   1.0000   1.0000   1.0000
     1.0000   1.0000   1.0000   1.0000   1.0000   1.0000   1.0000   1.0000
     1.0000   1.0000   1.0000   1.0000   1.0000   1.0000   1.0000   1.0000
     0.0000   0.0000   0.0000   0.0000   0.0000   0.0000

     highest occupied, lowest unoccupied level (ev):    -4.7447   -4.3881

     Writing all to output data dir ./work/AuDots.save/
 
     init_run     :      4.35s CPU      4.59s WALL (       1 calls)
     electrons    :  35525.09s CPU  35617.77s WALL (       1 calls)

     Called by init_run:
     wfcinit      :      0.00s CPU      0.00s WALL (       1 calls)
     wfcinit:atom :      0.89s CPU      1.46s WALL (       8 calls)
     wfcinit:wfcr :    135.28s CPU    136.57s WALL (       8 calls)
     potinit      :      0.48s CPU      0.59s WALL (       1 calls)
     hinit0       :      0.17s CPU      0.22s WALL (       1 calls)

     Called by electrons:
     c_bands      :  35525.09s CPU  35617.76s WALL (       1 calls)
     v_of_rho     :      0.38s CPU      0.44s WALL (       1 calls)
     v_h          :      0.05s CPU      0.05s WALL (       1 calls)
     v_xc         :      0.34s CPU      0.39s WALL (       1 calls)

     Called by c_bands:
     init_us_2    :      1.85s CPU      2.05s WALL (       8 calls)
     init_us_2:cp :      1.85s CPU      2.05s WALL (       8 calls)
     ccgdiagg     :  34992.65s CPU  35076.19s WALL (      32 calls)
     wfcrot       :    527.49s CPU    532.12s WALL (      32 calls)

     Called by sum_band:

     Called by *cgdiagg:
     h_psi        :  22468.91s CPU  22506.58s WALL (  103194 calls)

     Called by h_psi:
     h_psi:calbec :   9575.07s CPU   9595.59s WALL (  103194 calls)
     vloc_psi     :   3371.04s CPU   3386.79s WALL (  103194 calls)
     add_vuspsi   :   9502.37s CPU   9504.15s WALL (  103194 calls)
     hs_1psi      :  22022.10s CPU  22057.70s WALL (  103162 calls)
     s_1psi       :   9465.61s CPU   9488.15s WALL (  103162 calls)

     General routines
     calbec       :  19030.42s CPU  19073.90s WALL (  206356 calls)
     fft          :      0.26s CPU      0.29s WALL (      10 calls)
     fftw         :   2283.77s CPU   2297.06s WALL (  226324 calls)
     davcio       :      0.02s CPU      4.24s WALL (      16 calls)
 
     Parallel routines
 
     PWSCF        :      9h52m CPU      9h54m WALL

 
   This run was terminated on:  23: 1:23   9Oct2023            

=------------------------------------------------------------------------------=
   JOB DONE.
=------------------------------------------------------------------------------=
